n -t * -s 0  -x 440 -y 456 -Z 0 -z 20  -v circle -c black
n -t * -s 1  -x 272 -y 585 -Z 0 -z 20  -v circle -c black
n -t * -s 2  -x 235 -y 320 -Z 0 -z 20  -v circle -c black
n -t * -s 3  -x 540 -y 239 -Z 0 -z 20  -v circle -c black
n -t * -s 4  -x 686 -y 470 -Z 0 -z 20  -v circle -c black
V -t * -v 1.0a5 -a 0
W -t * -x 786 -y 685
A -t * -n 1 -p 0 -o 0x7fffffff -c 30 -a 1
A -t * -h 1 -m 1073741823 -s 0
+ -t 0.475592155 -s 4 -d -1 -p message -e 32 -c 2 -a 0 -i 0 -k RTR 
- -t 0.475592155 -s 4 -d -1 -p message -e 32 -c 2 -a 0 -i 0 -k RTR
h -t 0.475592155 -s 4 -d -1 -p message -e 32 -c 2 -a 0 -i 0 -k RTR
+ -t 0.475907155 -s 4 -d -1 -p message -e 90 -c 2 -a 0 -i 0 -k MAC 
- -t 0.475907155 -s 4 -d -1 -p message -e 90 -c 2 -a 0 -i 0 -k MAC
h -t 0.475907155 -s 4 -d -1 -p message -e 90 -c 2 -a 0 -i 0 -k MAC
r -t 0.476627976 -s 0 -d -1 -p message -e 32 -c 2 -a 0 -i 0 -k MAC
r -t 0.476652976 -s 0 -d -1 -p message -e 32 -c 2 -a 0 -i 0 -k RTR
+ -t 0.626351489 -s 2 -d -1 -p message -e 32 -c 2 -a 0 -i 1 -k RTR 
- -t 0.626351489 -s 2 -d -1 -p message -e 32 -c 2 -a 0 -i 1 -k RTR
h -t 0.626351489 -s 2 -d -1 -p message -e 32 -c 2 -a 0 -i 1 -k RTR
+ -t 0.626786489 -s 2 -d -1 -p message -e 90 -c 2 -a 0 -i 1 -k MAC 
- -t 0.626786489 -s 2 -d -1 -p message -e 90 -c 2 -a 0 -i 1 -k MAC
h -t 0.626786489 -s 2 -d -1 -p message -e 90 -c 2 -a 0 -i 1 -k MAC
r -t 0.627507309 -s 0 -d -1 -p message -e 32 -c 2 -a 0 -i 1 -k MAC
r -t 0.627532309 -s 0 -d -1 -p message -e 32 -c 2 -a 0 -i 1 -k RTR
+ -t 0.886583331 -s 0 -d -1 -p message -e 32 -c 2 -a 0 -i 2 -k RTR 
- -t 0.886583331 -s 0 -d -1 -p message -e 32 -c 2 -a 0 -i 2 -k RTR
h -t 0.886583331 -s 0 -d -1 -p message -e 32 -c 2 -a 0 -i 2 -k RTR
+ -t 0.886998331 -s 0 -d -1 -p message -e 90 -c 2 -a 0 -i 2 -k MAC 
- -t 0.886998331 -s 0 -d -1 -p message -e 90 -c 2 -a 0 -i 2 -k MAC
h -t 0.886998331 -s 0 -d -1 -p message -e 90 -c 2 -a 0 -i 2 -k MAC
r -t 0.887719038 -s 1 -d -1 -p message -e 32 -c 2 -a 0 -i 2 -k MAC
r -t 0.887719128 -s 3 -d -1 -p message -e 32 -c 2 -a 0 -i 2 -k MAC
r -t 0.887719151 -s 2 -d -1 -p message -e 32 -c 2 -a 0 -i 2 -k MAC
r -t 0.887719153 -s 4 -d -1 -p message -e 32 -c 2 -a 0 -i 2 -k MAC
r -t 0.887744038 -s 1 -d -1 -p message -e 32 -c 2 -a 0 -i 2 -k RTR
r -t 0.887744128 -s 3 -d -1 -p message -e 32 -c 2 -a 0 -i 2 -k RTR
r -t 0.887744151 -s 2 -d -1 -p message -e 32 -c 2 -a 0 -i 2 -k RTR
r -t 0.887744153 -s 4 -d -1 -p message -e 32 -c 2 -a 0 -i 2 -k RTR
+ -t 1.000000000 -s 1 -d -1 -p tcp -e 40 -c 2 -a 0 -i 3 -k AGT 
- -t 1.000000000 -s 1 -d -1 -p tcp -e 40 -c 2 -a 0 -i 3 -k AGT
h -t 1.000000000 -s 1 -d -1 -p tcp -e 40 -c 2 -a 0 -i 3 -k AGT
+ -t 1.000000000 -s 1 -d 0 -p tcp -e 60 -c 2 -a 0 -i 3 -k RTR 
- -t 1.000000000 -s 1 -d 0 -p tcp -e 60 -c 2 -a 0 -i 3 -k RTR
h -t 1.000000000 -s 1 -d 0 -p tcp -e 60 -c 2 -a 0 -i 3 -k RTR
+ -t 1.000000000 -s 2 -d -1 -p tcp -e 40 -c 2 -a 0 -i 4 -k AGT 
- -t 1.000000000 -s 2 -d -1 -p tcp -e 40 -c 2 -a 0 -i 4 -k AGT
h -t 1.000000000 -s 2 -d -1 -p tcp -e 40 -c 2 -a 0 -i 4 -k AGT
+ -t 1.000000000 -s 2 -d 0 -p tcp -e 60 -c 2 -a 0 -i 4 -k RTR 
- -t 1.000000000 -s 2 -d 0 -p tcp -e 60 -c 2 -a 0 -i 4 -k RTR
h -t 1.000000000 -s 2 -d 0 -p tcp -e 60 -c 2 -a 0 -i 4 -k RTR
+ -t 1.000000000 -s 3 -d -1 -p tcp -e 40 -c 2 -a 0 -i 5 -k AGT 
- -t 1.000000000 -s 3 -d -1 -p tcp -e 40 -c 2 -a 0 -i 5 -k AGT
h -t 1.000000000 -s 3 -d -1 -p tcp -e 40 -c 2 -a 0 -i 5 -k AGT
+ -t 1.000000000 -s 3 -d 0 -p tcp -e 60 -c 2 -a 0 -i 5 -k RTR 
- -t 1.000000000 -s 3 -d 0 -p tcp -e 60 -c 2 -a 0 -i 5 -k RTR
h -t 1.000000000 -s 3 -d 0 -p tcp -e 60 -c 2 -a 0 -i 5 -k RTR
+ -t 1.000000000 -s 4 -d -1 -p tcp -e 40 -c 2 -a 0 -i 6 -k AGT 
- -t 1.000000000 -s 4 -d -1 -p tcp -e 40 -c 2 -a 0 -i 6 -k AGT
h -t 1.000000000 -s 4 -d -1 -p tcp -e 40 -c 2 -a 0 -i 6 -k AGT
+ -t 1.000000000 -s 4 -d 0 -p tcp -e 60 -c 2 -a 0 -i 6 -k RTR 
- -t 1.000000000 -s 4 -d 0 -p tcp -e 60 -c 2 -a 0 -i 6 -k RTR
h -t 1.000000000 -s 4 -d 0 -p tcp -e 60 -c 2 -a 0 -i 6 -k RTR
+ -t 1.000075000 -s 3 -d -1 -p ARP -e 86 -c 2 -a 0 -i 0 -k MAC 
- -t 1.000075000 -s 3 -d -1 -p ARP -e 86 -c 2 -a 0 -i 0 -k MAC
h -t 1.000075000 -s 3 -d -1 -p ARP -e 86 -c 2 -a 0 -i 0 -k MAC
r -t 1.000763796 -s 0 -d -1 -p ARP -e 28 -c 2 -a 0 -i 0 -k MAC
+ -t 1.000998796 -s 0 -d -1 -p RTS -e 44 -c 2 -a 0 -i 0 -k MAC 
- -t 1.000998796 -s 0 -d -1 -p RTS -e 44 -c 2 -a 0 -i 0 -k MAC
h -t 1.000998796 -s 0 -d -1 -p RTS -e 44 -c 2 -a 0 -i 0 -k MAC
r -t 1.001351593 -s 3 -d -1 -p RTS -e 44 -c 2 -a 0 -i 0 -k MAC
+ -t 1.001361593 -s 3 -d -1 -p CTS -e 38 -c 2 -a 0 -i 0 -k MAC 
- -t 1.001361593 -s 3 -d -1 -p CTS -e 38 -c 2 -a 0 -i 0 -k MAC
h -t 1.001361593 -s 3 -d -1 -p CTS -e 38 -c 2 -a 0 -i 0 -k MAC
r -t 1.001666389 -s 0 -d -1 -p CTS -e 38 -c 2 -a 0 -i 0 -k MAC
+ -t 1.001676389 -s 0 -d -1 -p ARP -e 86 -c 2 -a 0 -i 0 -k MAC 
- -t 1.001676389 -s 0 -d -1 -p ARP -e 86 -c 2 -a 0 -i 0 -k MAC
h -t 1.001676389 -s 0 -d -1 -p ARP -e 86 -c 2 -a 0 -i 0 -k MAC
r -t 1.002365186 -s 3 -d -1 -p ARP -e 28 -c 2 -a 0 -i 0 -k MAC
+ -t 1.002375186 -s 3 -d -1 -p ACK -e 38 -c 2 -a 0 -i 0 -k MAC 
- -t 1.002375186 -s 3 -d -1 -p ACK -e 38 -c 2 -a 0 -i 0 -k MAC
h -t 1.002375186 -s 3 -d -1 -p ACK -e 38 -c 2 -a 0 -i 0 -k MAC
r -t 1.002679982 -s 0 -d -1 -p ACK -e 38 -c 2 -a 0 -i 0 -k MAC
+ -t 1.002989186 -s 3 -d -1 -p RTS -e 44 -c 2 -a 0 -i 0 -k MAC 
- -t 1.002989186 -s 3 -d -1 -p RTS -e 44 -c 2 -a 0 -i 0 -k MAC
h -t 1.002989186 -s 3 -d -1 -p RTS -e 44 -c 2 -a 0 -i 0 -k MAC
r -t 1.003341982 -s 0 -d -1 -p RTS -e 44 -c 2 -a 0 -i 0 -k MAC
+ -t 1.003351982 -s 0 -d -1 -p CTS -e 38 -c 2 -a 0 -i 0 -k MAC 
- -t 1.003351982 -s 0 -d -1 -p CTS -e 38 -c 2 -a 0 -i 0 -k MAC
h -t 1.003351982 -s 0 -d -1 -p CTS -e 38 -c 2 -a 0 -i 0 -k MAC
r -t 1.003656779 -s 3 -d -1 -p CTS -e 38 -c 2 -a 0 -i 0 -k MAC
+ -t 1.003666779 -s 3 -d 0 -p tcp -e 118 -c 2 -a 0 -i 5 -k MAC 
- -t 1.003666779 -s 3 -d 0 -p tcp -e 118 -c 2 -a 0 -i 5 -k MAC
h -t 1.003666779 -s 3 -d 0 -p tcp -e 118 -c 2 -a 0 -i 5 -k MAC
r -t 1.004611575 -s 0 -d 0 -p tcp -e 60 -c 2 -a 0 -i 5 -k MAC
+ -t 1.004621575 -s 0 -d -1 -p ACK -e 38 -c 2 -a 0 -i 0 -k MAC 
- -t 1.004621575 -s 0 -d -1 -p ACK -e 38 -c 2 -a 0 -i 0 -k MAC
h -t 1.004621575 -s 0 -d -1 -p ACK -e 38 -c 2 -a 0 -i 0 -k MAC
r -t 1.004636575 -s 0 -d 0 -p tcp -e 60 -c 2 -a 0 -i 5 -k AGT
+ -t 1.004636575 -s 0 -d -1 -p ack -e 40 -c 2 -a 0 -i 7 -k AGT 
- -t 1.004636575 -s 0 -d -1 -p ack -e 40 -c 2 -a 0 -i 7 -k AGT
h -t 1.004636575 -s 0 -d -1 -p ack -e 40 -c 2 -a 0 -i 7 -k AGT
r -t 1.004926372 -s 3 -d -1 -p ACK -e 38 -c 2 -a 0 -i 0 -k MAC
+ -t 1.005206238 -s 1 -d -1 -p ARP -e 86 -c 2 -a 0 -i 0 -k MAC 
- -t 1.005206238 -s 1 -d -1 -p ARP -e 86 -c 2 -a 0 -i 0 -k MAC
h -t 1.005206238 -s 1 -d -1 -p ARP -e 86 -c 2 -a 0 -i 0 -k MAC
r -t 1.005894944 -s 0 -d -1 -p ARP -e 28 -c 2 -a 0 -i 0 -k MAC
+ -t 1.006064944 -s 0 -d -1 -p RTS -e 44 -c 2 -a 0 -i 0 -k MAC 
- -t 1.006064944 -s 0 -d -1 -p RTS -e 44 -c 2 -a 0 -i 0 -k MAC
h -t 1.006064944 -s 0 -d -1 -p RTS -e 44 -c 2 -a 0 -i 0 -k MAC
r -t 1.006417650 -s 1 -d -1 -p RTS -e 44 -c 2 -a 0 -i 0 -k MAC
+ -t 1.006427650 -s 1 -d -1 -p CTS -e 38 -c 2 -a 0 -i 0 -k MAC 
- -t 1.006427650 -s 1 -d -1 -p CTS -e 38 -c 2 -a 0 -i 0 -k MAC
h -t 1.006427650 -s 1 -d -1 -p CTS -e 38 -c 2 -a 0 -i 0 -k MAC
r -t 1.006732356 -s 0 -d -1 -p CTS -e 38 -c 2 -a 0 -i 0 -k MAC
+ -t 1.006742356 -s 0 -d -1 -p ARP -e 86 -c 2 -a 0 -i 0 -k MAC 
- -t 1.006742356 -s 0 -d -1 -p ARP -e 86 -c 2 -a 0 -i 0 -k MAC
h -t 1.006742356 -s 0 -d -1 -p ARP -e 86 -c 2 -a 0 -i 0 -k MAC
r -t 1.007431062 -s 1 -d -1 -p ARP -e 28 -c 2 -a 0 -i 0 -k MAC
+ -t 1.007441062 -s 1 -d -1 -p ACK -e 38 -c 2 -a 0 -i 0 -k MAC 
- -t 1.007441062 -s 1 -d -1 -p ACK -e 38 -c 2 -a 0 -i 0 -k MAC
h -t 1.007441062 -s 1 -d -1 -p ACK -e 38 -c 2 -a 0 -i 0 -k MAC
r -t 1.007745768 -s 0 -d -1 -p ACK -e 38 -c 2 -a 0 -i 0 -k MAC
+ -t 1.008179954 -s 2 -d -1 -p ARP -e 86 -c 2 -a 0 -i 0 -k MAC 
- -t 1.008179954 -s 2 -d -1 -p ARP -e 86 -c 2 -a 0 -i 0 -k MAC
h -t 1.008179954 -s 2 -d -1 -p ARP -e 86 -c 2 -a 0 -i 0 -k MAC
r -t 1.008868774 -s 0 -d -1 -p ARP -e 28 -c 2 -a 0 -i 0 -k MAC
+ -t 1.009223774 -s 0 -d -1 -p RTS -e 44 -c 2 -a 0 -i 0 -k MAC 
- -t 1.009223774 -s 0 -d -1 -p RTS -e 44 -c 2 -a 0 -i 0 -k MAC
h -t 1.009223774 -s 0 -d -1 -p RTS -e 44 -c 2 -a 0 -i 0 -k MAC
r -t 1.009576594 -s 2 -d -1 -p RTS -e 44 -c 2 -a 0 -i 0 -k MAC
+ -t 1.009586594 -s 2 -d -1 -p CTS -e 38 -c 2 -a 0 -i 0 -k MAC 
- -t 1.009586594 -s 2 -d -1 -p CTS -e 38 -c 2 -a 0 -i 0 -k MAC
h -t 1.009586594 -s 2 -d -1 -p CTS -e 38 -c 2 -a 0 -i 0 -k MAC
r -t 1.009891414 -s 0 -d -1 -p CTS -e 38 -c 2 -a 0 -i 0 -k MAC
+ -t 1.009901414 -s 0 -d -1 -p ARP -e 86 -c 2 -a 0 -i 0 -k MAC 
- -t 1.009901414 -s 0 -d -1 -p ARP -e 86 -c 2 -a 0 -i 0 -k MAC
h -t 1.009901414 -s 0 -d -1 -p ARP -e 86 -c 2 -a 0 -i 0 -k MAC
r -t 1.010590234 -s 2 -d -1 -p ARP -e 28 -c 2 -a 0 -i 0 -k MAC
+ -t 1.010600234 -s 2 -d -1 -p ACK -e 38 -c 2 -a 0 -i 0 -k MAC 
- -t 1.010600234 -s 2 -d -1 -p ACK -e 38 -c 2 -a 0 -i 0 -k MAC
h -t 1.010600234 -s 2 -d -1 -p ACK -e 38 -c 2 -a 0 -i 0 -k MAC
r -t 1.010905054 -s 0 -d -1 -p ACK -e 38 -c 2 -a 0 -i 0 -k MAC
+ -t 1.011314234 -s 2 -d -1 -p RTS -e 44 -c 2 -a 0 -i 0 -k MAC 
- -t 1.011314234 -s 2 -d -1 -p RTS -e 44 -c 2 -a 0 -i 0 -k MAC
h -t 1.011314234 -s 2 -d -1 -p RTS -e 44 -c 2 -a 0 -i 0 -k MAC
r -t 1.011667054 -s 0 -d -1 -p RTS -e 44 -c 2 -a 0 -i 0 -k MAC
+ -t 1.011677054 -s 0 -d -1 -p CTS -e 38 -c 2 -a 0 -i 0 -k MAC 
- -t 1.011677054 -s 0 -d -1 -p CTS -e 38 -c 2 -a 0 -i 0 -k MAC
h -t 1.011677054 -s 0 -d -1 -p CTS -e 38 -c 2 -a 0 -i 0 -k MAC
r -t 1.011981874 -s 2 -d -1 -p CTS -e 38 -c 2 -a 0 -i 0 -k MAC
+ -t 1.011991874 -s 2 -d 0 -p tcp -e 118 -c 2 -a 0 -i 4 -k MAC 
- -t 1.011991874 -s 2 -d 0 -p tcp -e 118 -c 2 -a 0 -i 4 -k MAC
h -t 1.011991874 -s 2 -d 0 -p tcp -e 118 -c 2 -a 0 -i 4 -k MAC
r -t 1.012936694 -s 0 -d 0 -p tcp -e 60 -c 2 -a 0 -i 4 -k MAC
+ -t 1.012946694 -s 0 -d -1 -p ACK -e 38 -c 2 -a 0 -i 0 -k MAC 
- -t 1.012946694 -s 0 -d -1 -p ACK -e 38 -c 2 -a 0 -i 0 -k MAC
h -t 1.012946694 -s 0 -d -1 -p ACK -e 38 -c 2 -a 0 -i 0 -k MAC
r -t 1.012961694 -s 0 -d 0 -p tcp -e 60 -c 2 -a 0 -i 4 -k AGT
+ -t 1.012961694 -s 0 -d -1 -p ack -e 40 -c 2 -a 0 -i 8 -k AGT 
- -t 1.012961694 -s 0 -d -1 -p ack -e 40 -c 2 -a 0 -i 8 -k AGT
h -t 1.012961694 -s 0 -d -1 -p ack -e 40 -c 2 -a 0 -i 8 -k AGT
+ -t 1.012961694 -s 0 -d 2 -p ack -e 60 -c 2 -a 0 -i 8 -k RTR 
- -t 1.012961694 -s 0 -d 2 -p ack -e 60 -c 2 -a 0 -i 8 -k RTR
h -t 1.012961694 -s 0 -d 2 -p ack -e 60 -c 2 -a 0 -i 8 -k RTR
r -t 1.013251514 -s 2 -d -1 -p ACK -e 38 -c 2 -a 0 -i 0 -k MAC
+ -t 1.013371458 -s 4 -d -1 -p ARP -e 86 -c 2 -a 0 -i 0 -k MAC 
- -t 1.013371458 -s 4 -d -1 -p ARP -e 86 -c 2 -a 0 -i 0 -k MAC
h -t 1.013371458 -s 4 -d -1 -p ARP -e 86 -c 2 -a 0 -i 0 -k MAC
r -t 1.014060279 -s 0 -d -1 -p ARP -e 28 -c 2 -a 0 -i 0 -k MAC
+ -t 1.014130279 -s 0 -d -1 -p RTS -e 44 -c 2 -a 0 -i 0 -k MAC 
- -t 1.014130279 -s 0 -d -1 -p RTS -e 44 -c 2 -a 0 -i 0 -k MAC
h -t 1.014130279 -s 0 -d -1 -p RTS -e 44 -c 2 -a 0 -i 0 -k MAC
r -t 1.014483099 -s 2 -d -1 -p RTS -e 44 -c 2 -a 0 -i 0 -k MAC
+ -t 1.014493099 -s 2 -d -1 -p CTS -e 38 -c 2 -a 0 -i 0 -k MAC 
- -t 1.014493099 -s 2 -d -1 -p CTS -e 38 -c 2 -a 0 -i 0 -k MAC
h -t 1.014493099 -s 2 -d -1 -p CTS -e 38 -c 2 -a 0 -i 0 -k MAC
r -t 1.014797919 -s 0 -d -1 -p CTS -e 38 -c 2 -a 0 -i 0 -k MAC
+ -t 1.014807919 -s 0 -d 2 -p ack -e 118 -c 2 -a 0 -i 8 -k MAC 
- -t 1.014807919 -s 0 -d 2 -p ack -e 118 -c 2 -a 0 -i 8 -k MAC
h -t 1.014807919 -s 0 -d 2 -p ack -e 118 -c 2 -a 0 -i 8 -k MAC
r -t 1.015752740 -s 2 -d 2 -p ack -e 60 -c 2 -a 0 -i 8 -k MAC
+ -t 1.015762740 -s 2 -d -1 -p ACK -e 38 -c 2 -a 0 -i 0 -k MAC 
- -t 1.015762740 -s 2 -d -1 -p ACK -e 38 -c 2 -a 0 -i 0 -k MAC
h -t 1.015762740 -s 2 -d -1 -p ACK -e 38 -c 2 -a 0 -i 0 -k MAC
r -t 1.015777740 -s 2 -d 2 -p ack -e 60 -c 2 -a 0 -i 8 -k AGT
+ -t 1.015777740 -s 2 -d -1 -p tcp -e 1540 -c 2 -a 0 -i 9 -k AGT 
- -t 1.015777740 -s 2 -d -1 -p tcp -e 1540 -c 2 -a 0 -i 9 -k AGT
h -t 1.015777740 -s 2 -d -1 -p tcp -e 1540 -c 2 -a 0 -i 9 -k AGT
+ -t 1.015777740 -s 2 -d 0 -p tcp -e 1560 -c 2 -a 0 -i 9 -k RTR 
- -t 1.015777740 -s 2 -d 0 -p tcp -e 1560 -c 2 -a 0 -i 9 -k RTR
h -t 1.015777740 -s 2 -d 0 -p tcp -e 1560 -c 2 -a 0 -i 9 -k RTR
+ -t 1.015777740 -s 2 -d -1 -p tcp -e 1540 -c 2 -a 0 -i 10 -k AGT 
- -t 1.015777740 -s 2 -d -1 -p tcp -e 1540 -c 2 -a 0 -i 10 -k AGT
h -t 1.015777740 -s 2 -d -1 -p tcp -e 1540 -c 2 -a 0 -i 10 -k AGT
+ -t 1.015777740 -s 2 -d 0 -p tcp -e 1560 -c 2 -a 0 -i 10 -k RTR 
- -t 1.015777740 -s 2 -d 0 -p tcp -e 1560 -c 2 -a 0 -i 10 -k RTR
h -t 1.015777740 -s 2 -d 0 -p tcp -e 1560 -c 2 -a 0 -i 10 -k RTR
r -t 1.016067560 -s 0 -d -1 -p ACK -e 38 -c 2 -a 0 -i 0 -k MAC
+ -t 1.016217560 -s 0 -d -1 -p RTS -e 44 -c 2 -a 0 -i 0 -k MAC 
- -t 1.016217560 -s 0 -d -1 -p RTS -e 44 -c 2 -a 0 -i 0 -k MAC
h -t 1.016217560 -s 0 -d -1 -p RTS -e 44 -c 2 -a 0 -i 0 -k MAC
r -t 1.016570381 -s 4 -d -1 -p RTS -e 44 -c 2 -a 0 -i 0 -k MAC
+ -t 1.016580381 -s 4 -d -1 -p CTS -e 38 -c 2 -a 0 -i 0 -k MAC 
- -t 1.016580381 -s 4 -d -1 -p CTS -e 38 -c 2 -a 0 -i 0 -k MAC
h -t 1.016580381 -s 4 -d -1 -p CTS -e 38 -c 2 -a 0 -i 0 -k MAC
r -t 1.016885202 -s 0 -d -1 -p CTS -e 38 -c 2 -a 0 -i 0 -k MAC
+ -t 1.016895202 -s 0 -d -1 -p ARP -e 86 -c 2 -a 0 -i 0 -k MAC 
- -t 1.016895202 -s 0 -d -1 -p ARP -e 86 -c 2 -a 0 -i 0 -k MAC
h -t 1.016895202 -s 0 -d -1 -p ARP -e 86 -c 2 -a 0 -i 0 -k MAC
r -t 1.017584024 -s 4 -d -1 -p ARP -e 28 -c 2 -a 0 -i 0 -k MAC
+ -t 1.017594024 -s 4 -d -1 -p ACK -e 38 -c 2 -a 0 -i 0 -k MAC 
- -t 1.017594024 -s 4 -d -1 -p ACK -e 38 -c 2 -a 0 -i 0 -k MAC
h -t 1.017594024 -s 4 -d -1 -p ACK -e 38 -c 2 -a 0 -i 0 -k MAC
r -t 1.017898845 -s 0 -d -1 -p ACK -e 38 -c 2 -a 0 -i 0 -k MAC
+ -t 1.018128024 -s 4 -d -1 -p RTS -e 44 -c 2 -a 0 -i 0 -k MAC 
- -t 1.018128024 -s 4 -d -1 -p RTS -e 44 -c 2 -a 0 -i 0 -k MAC
h -t 1.018128024 -s 4 -d -1 -p RTS -e 44 -c 2 -a 0 -i 0 -k MAC
r -t 1.018480845 -s 0 -d -1 -p RTS -e 44 -c 2 -a 0 -i 0 -k MAC
+ -t 1.018490845 -s 0 -d -1 -p CTS -e 38 -c 2 -a 0 -i 0 -k MAC 
- -t 1.018490845 -s 0 -d -1 -p CTS -e 38 -c 2 -a 0 -i 0 -k MAC
h -t 1.018490845 -s 0 -d -1 -p CTS -e 38 -c 2 -a 0 -i 0 -k MAC
r -t 1.018795666 -s 4 -d -1 -p CTS -e 38 -c 2 -a 0 -i 0 -k MAC
+ -t 1.018805666 -s 4 -d 0 -p tcp -e 118 -c 2 -a 0 -i 6 -k MAC 
- -t 1.018805666 -s 4 -d 0 -p tcp -e 118 -c 2 -a 0 -i 6 -k MAC
h -t 1.018805666 -s 4 -d 0 -p tcp -e 118 -c 2 -a 0 -i 6 -k MAC
r -t 1.019750488 -s 0 -d 0 -p tcp -e 60 -c 2 -a 0 -i 6 -k MAC
+ -t 1.019760488 -s 0 -d -1 -p ACK -e 38 -c 2 -a 0 -i 0 -k MAC 
- -t 1.019760488 -s 0 -d -1 -p ACK -e 38 -c 2 -a 0 -i 0 -k MAC
h -t 1.019760488 -s 0 -d -1 -p ACK -e 38 -c 2 -a 0 -i 0 -k MAC
r -t 1.019775488 -s 0 -d 0 -p tcp -e 60 -c 2 -a 0 -i 6 -k AGT
+ -t 1.019775488 -s 0 -d -1 -p ack -e 40 -c 2 -a 0 -i 11 -k AGT 
- -t 1.019775488 -s 0 -d -1 -p ack -e 40 -c 2 -a 0 -i 11 -k AGT
h -t 1.019775488 -s 0 -d -1 -p ack -e 40 -c 2 -a 0 -i 11 -k AGT
+ -t 1.019775488 -s 0 -d 4 -p ack -e 60 -c 2 -a 0 -i 11 -k RTR 
- -t 1.019775488 -s 0 -d 4 -p ack -e 60 -c 2 -a 0 -i 11 -k RTR
h -t 1.019775488 -s 0 -d 4 -p ack -e 60 -c 2 -a 0 -i 11 -k RTR
r -t 1.020065309 -s 4 -d -1 -p ACK -e 38 -c 2 -a 0 -i 0 -k MAC
+ -t 1.020185098 -s 1 -d -1 -p RTS -e 44 -c 2 -a 0 -i 0 -k MAC 
- -t 1.020185098 -s 1 -d -1 -p RTS -e 44 -c 2 -a 0 -i 0 -k MAC
h -t 1.020185098 -s 1 -d -1 -p RTS -e 44 -c 2 -a 0 -i 0 -k MAC
r -t 1.020537804 -s 0 -d -1 -p RTS -e 44 -c 2 -a 0 -i 0 -k MAC
+ -t 1.020547804 -s 0 -d -1 -p CTS -e 38 -c 2 -a 0 -i 0 -k MAC 
- -t 1.020547804 -s 0 -d -1 -p CTS -e 38 -c 2 -a 0 -i 0 -k MAC
h -t 1.020547804 -s 0 -d -1 -p CTS -e 38 -c 2 -a 0 -i 0 -k MAC
r -t 1.020852511 -s 1 -d -1 -p CTS -e 38 -c 2 -a 0 -i 0 -k MAC
+ -t 1.020862511 -s 1 -d 0 -p tcp -e 118 -c 2 -a 0 -i 3 -k MAC 
- -t 1.020862511 -s 1 -d 0 -p tcp -e 118 -c 2 -a 0 -i 3 -k MAC
h -t 1.020862511 -s 1 -d 0 -p tcp -e 118 -c 2 -a 0 -i 3 -k MAC
r -t 1.021807217 -s 0 -d 0 -p tcp -e 60 -c 2 -a 0 -i 3 -k MAC
+ -t 1.021817217 -s 0 -d -1 -p ACK -e 38 -c 2 -a 0 -i 0 -k MAC 
- -t 1.021817217 -s 0 -d -1 -p ACK -e 38 -c 2 -a 0 -i 0 -k MAC
h -t 1.021817217 -s 0 -d -1 -p ACK -e 38 -c 2 -a 0 -i 0 -k MAC
r -t 1.021832217 -s 0 -d 0 -p tcp -e 60 -c 2 -a 0 -i 3 -k AGT
+ -t 1.021832217 -s 0 -d -1 -p ack -e 40 -c 2 -a 0 -i 12 -k AGT 
- -t 1.021832217 -s 0 -d -1 -p ack -e 40 -c 2 -a 0 -i 12 -k AGT
h -t 1.021832217 -s 0 -d -1 -p ack -e 40 -c 2 -a 0 -i 12 -k AGT
r -t 1.022121923 -s 1 -d -1 -p ACK -e 38 -c 2 -a 0 -i 0 -k MAC
+ -t 1.022321402 -s 2 -d -1 -p RTS -e 44 -c 2 -a 0 -i 0 -k MAC 
- -t 1.022321402 -s 2 -d -1 -p RTS -e 44 -c 2 -a 0 -i 0 -k MAC
h -t 1.022321402 -s 2 -d -1 -p RTS -e 44 -c 2 -a 0 -i 0 -k MAC
r -t 1.022674222 -s 0 -d -1 -p RTS -e 44 -c 2 -a 0 -i 0 -k MAC
+ -t 1.022684222 -s 0 -d -1 -p CTS -e 38 -c 2 -a 0 -i 0 -k MAC 
- -t 1.022684222 -s 0 -d -1 -p CTS -e 38 -c 2 -a 0 -i 0 -k MAC
h -t 1.022684222 -s 0 -d -1 -p CTS -e 38 -c 2 -a 0 -i 0 -k MAC
r -t 1.022989042 -s 2 -d -1 -p CTS -e 38 -c 2 -a 0 -i 0 -k MAC
+ -t 1.022999042 -s 2 -d 0 -p tcp -e 1618 -c 2 -a 0 -i 9 -k MAC 
- -t 1.022999042 -s 2 -d 0 -p tcp -e 1618 -c 2 -a 0 -i 9 -k MAC
h -t 1.022999042 -s 2 -d 0 -p tcp -e 1618 -c 2 -a 0 -i 9 -k MAC
r -t 1.035943863 -s 0 -d 0 -p tcp -e 1560 -c 2 -a 0 -i 9 -k MAC
+ -t 1.035953863 -s 0 -d -1 -p ACK -e 38 -c 2 -a 0 -i 0 -k MAC 
- -t 1.035953863 -s 0 -d -1 -p ACK -e 38 -c 2 -a 0 -i 0 -k MAC
h -t 1.035953863 -s 0 -d -1 -p ACK -e 38 -c 2 -a 0 -i 0 -k MAC
r -t 1.035968863 -s 0 -d 0 -p tcp -e 1560 -c 2 -a 0 -i 9 -k AGT
+ -t 1.035968863 -s 0 -d -1 -p ack -e 40 -c 2 -a 0 -i 13 -k AGT 
- -t 1.035968863 -s 0 -d -1 -p ack -e 40 -c 2 -a 0 -i 13 -k AGT
h -t 1.035968863 -s 0 -d -1 -p ack -e 40 -c 2 -a 0 -i 13 -k AGT
+ -t 1.035968863 -s 0 -d 2 -p ack -e 60 -c 2 -a 0 -i 13 -k RTR 
- -t 1.035968863 -s 0 -d 2 -p ack -e 60 -c 2 -a 0 -i 13 -k RTR
h -t 1.035968863 -s 0 -d 2 -p ack -e 60 -c 2 -a 0 -i 13 -k RTR
r -t 1.036258683 -s 2 -d -1 -p ACK -e 38 -c 2 -a 0 -i 0 -k MAC
+ -t 1.036467863 -s 0 -d -1 -p RTS -e 44 -c 2 -a 0 -i 0 -k MAC 
- -t 1.036467863 -s 0 -d -1 -p RTS -e 44 -c 2 -a 0 -i 0 -k MAC
h -t 1.036467863 -s 0 -d -1 -p RTS -e 44 -c 2 -a 0 -i 0 -k MAC
r -t 1.036820684 -s 4 -d -1 -p RTS -e 44 -c 2 -a 0 -i 0 -k MAC
+ -t 1.036830684 -s 4 -d -1 -p CTS -e 38 -c 2 -a 0 -i 0 -k MAC 
- -t 1.036830684 -s 4 -d -1 -p CTS -e 38 -c 2 -a 0 -i 0 -k MAC
h -t 1.036830684 -s 4 -d -1 -p CTS -e 38 -c 2 -a 0 -i 0 -k MAC
r -t 1.037135505 -s 0 -d -1 -p CTS -e 38 -c 2 -a 0 -i 0 -k MAC
+ -t 1.037145505 -s 0 -d 4 -p ack -e 118 -c 2 -a 0 -i 11 -k MAC 
- -t 1.037145505 -s 0 -d 4 -p ack -e 118 -c 2 -a 0 -i 11 -k MAC
h -t 1.037145505 -s 0 -d 4 -p ack -e 118 -c 2 -a 0 -i 11 -k MAC
r -t 1.038090327 -s 4 -d 4 -p ack -e 60 -c 2 -a 0 -i 11 -k MAC
+ -t 1.038100327 -s 4 -d -1 -p ACK -e 38 -c 2 -a 0 -i 0 -k MAC 
- -t 1.038100327 -s 4 -d -1 -p ACK -e 38 -c 2 -a 0 -i 0 -k MAC
h -t 1.038100327 -s 4 -d -1 -p ACK -e 38 -c 2 -a 0 -i 0 -k MAC
r -t 1.038115327 -s 4 -d 4 -p ack -e 60 -c 2 -a 0 -i 11 -k AGT
+ -t 1.038115327 -s 4 -d -1 -p tcp -e 1540 -c 2 -a 0 -i 14 -k AGT 
- -t 1.038115327 -s 4 -d -1 -p tcp -e 1540 -c 2 -a 0 -i 14 -k AGT
h -t 1.038115327 -s 4 -d -1 -p tcp -e 1540 -c 2 -a 0 -i 14 -k AGT
+ -t 1.038115327 -s 4 -d 0 -p tcp -e 1560 -c 2 -a 0 -i 14 -k RTR 
- -t 1.038115327 -s 4 -d 0 -p tcp -e 1560 -c 2 -a 0 -i 14 -k RTR
h -t 1.038115327 -s 4 -d 0 -p tcp -e 1560 -c 2 -a 0 -i 14 -k RTR
+ -t 1.038115327 -s 4 -d -1 -p tcp -e 1540 -c 2 -a 0 -i 15 -k AGT 
- -t 1.038115327 -s 4 -d -1 -p tcp -e 1540 -c 2 -a 0 -i 15 -k AGT
h -t 1.038115327 -s 4 -d -1 -p tcp -e 1540 -c 2 -a 0 -i 15 -k AGT
+ -t 1.038115327 -s 4 -d 0 -p tcp -e 1560 -c 2 -a 0 -i 15 -k RTR 
- -t 1.038115327 -s 4 -d 0 -p tcp -e 1560 -c 2 -a 0 -i 15 -k RTR
h -t 1.038115327 -s 4 -d 0 -p tcp -e 1560 -c 2 -a 0 -i 15 -k RTR
r -t 1.038405148 -s 0 -d -1 -p ACK -e 38 -c 2 -a 0 -i 0 -k MAC
+ -t 1.038514327 -s 4 -d -1 -p RTS -e 44 -c 2 -a 0 -i 0 -k MAC 
- -t 1.038514327 -s 4 -d -1 -p RTS -e 44 -c 2 -a 0 -i 0 -k MAC
h -t 1.038514327 -s 4 -d -1 -p RTS -e 44 -c 2 -a 0 -i 0 -k MAC
r -t 1.038867148 -s 0 -d -1 -p RTS -e 44 -c 2 -a 0 -i 0 -k MAC
+ -t 1.038877148 -s 0 -d -1 -p CTS -e 38 -c 2 -a 0 -i 0 -k MAC 
- -t 1.038877148 -s 0 -d -1 -p CTS -e 38 -c 2 -a 0 -i 0 -k MAC
h -t 1.038877148 -s 0 -d -1 -p CTS -e 38 -c 2 -a 0 -i 0 -k MAC
r -t 1.039181969 -s 4 -d -1 -p CTS -e 38 -c 2 -a 0 -i 0 -k MAC
+ -t 1.039191969 -s 4 -d 0 -p tcp -e 1618 -c 2 -a 0 -i 14 -k MAC 
- -t 1.039191969 -s 4 -d 0 -p tcp -e 1618 -c 2 -a 0 -i 14 -k MAC
h -t 1.039191969 -s 4 -d 0 -p tcp -e 1618 -c 2 -a 0 -i 14 -k MAC
r -t 1.052136790 -s 0 -d 0 -p tcp -e 1560 -c 2 -a 0 -i 14 -k MAC
+ -t 1.052146790 -s 0 -d -1 -p ACK -e 38 -c 2 -a 0 -i 0 -k MAC 
- -t 1.052146790 -s 0 -d -1 -p ACK -e 38 -c 2 -a 0 -i 0 -k MAC
h -t 1.052146790 -s 0 -d -1 -p ACK -e 38 -c 2 -a 0 -i 0 -k MAC
r -t 1.052161790 -s 0 -d 0 -p tcp -e 1560 -c 2 -a 0 -i 14 -k AGT
+ -t 1.052161790 -s 0 -d -1 -p ack -e 40 -c 2 -a 0 -i 16 -k AGT 
- -t 1.052161790 -s 0 -d -1 -p ack -e 40 -c 2 -a 0 -i 16 -k AGT
h -t 1.052161790 -s 0 -d -1 -p ack -e 40 -c 2 -a 0 -i 16 -k AGT
+ -t 1.052161790 -s 0 -d 4 -p ack -e 60 -c 2 -a 0 -i 16 -k RTR 
- -t 1.052161790 -s 0 -d 4 -p ack -e 60 -c 2 -a 0 -i 16 -k RTR
h -t 1.052161790 -s 0 -d 4 -p ack -e 60 -c 2 -a 0 -i 16 -k RTR
r -t 1.052451612 -s 4 -d -1 -p ACK -e 38 -c 2 -a 0 -i 0 -k MAC
+ -t 1.052580790 -s 0 -d -1 -p RTS -e 44 -c 2 -a 0 -i 0 -k MAC 
- -t 1.052580790 -s 0 -d -1 -p RTS -e 44 -c 2 -a 0 -i 0 -k MAC
h -t 1.052580790 -s 0 -d -1 -p RTS -e 44 -c 2 -a 0 -i 0 -k MAC
r -t 1.052933611 -s 2 -d -1 -p RTS -e 44 -c 2 -a 0 -i 0 -k MAC
+ -t 1.052943611 -s 2 -d -1 -p CTS -e 38 -c 2 -a 0 -i 0 -k MAC 
- -t 1.052943611 -s 2 -d -1 -p CTS -e 38 -c 2 -a 0 -i 0 -k MAC
h -t 1.052943611 -s 2 -d -1 -p CTS -e 38 -c 2 -a 0 -i 0 -k MAC
r -t 1.053248431 -s 0 -d -1 -p CTS -e 38 -c 2 -a 0 -i 0 -k MAC
+ -t 1.053258431 -s 0 -d 2 -p ack -e 118 -c 2 -a 0 -i 13 -k MAC 
- -t 1.053258431 -s 0 -d 2 -p ack -e 118 -c 2 -a 0 -i 13 -k MAC
h -t 1.053258431 -s 0 -d 2 -p ack -e 118 -c 2 -a 0 -i 13 -k MAC
r -t 1.054203251 -s 2 -d 2 -p ack -e 60 -c 2 -a 0 -i 13 -k MAC
+ -t 1.054213251 -s 2 -d -1 -p ACK -e 38 -c 2 -a 0 -i 0 -k MAC 
- -t 1.054213251 -s 2 -d -1 -p ACK -e 38 -c 2 -a 0 -i 0 -k MAC
h -t 1.054213251 -s 2 -d -1 -p ACK -e 38 -c 2 -a 0 -i 0 -k MAC
r -t 1.054228251 -s 2 -d 2 -p ack -e 60 -c 2 -a 0 -i 13 -k AGT
+ -t 1.054228251 -s 2 -d -1 -p tcp -e 1540 -c 2 -a 0 -i 17 -k AGT 
- -t 1.054228251 -s 2 -d -1 -p tcp -e 1540 -c 2 -a 0 -i 17 -k AGT
h -t 1.054228251 -s 2 -d -1 -p tcp -e 1540 -c 2 -a 0 -i 17 -k AGT
+ -t 1.054228251 -s 2 -d 0 -p tcp -e 1560 -c 2 -a 0 -i 17 -k RTR 
- -t 1.054228251 -s 2 -d 0 -p tcp -e 1560 -c 2 -a 0 -i 17 -k RTR
h -t 1.054228251 -s 2 -d 0 -p tcp -e 1560 -c 2 -a 0 -i 17 -k RTR
+ -t 1.054228251 -s 2 -d -1 -p tcp -e 1540 -c 2 -a 0 -i 18 -k AGT 
- -t 1.054228251 -s 2 -d -1 -p tcp -e 1540 -c 2 -a 0 -i 18 -k AGT
h -t 1.054228251 -s 2 -d -1 -p tcp -e 1540 -c 2 -a 0 -i 18 -k AGT
+ -t 1.054228251 -s 2 -d 0 -p tcp -e 1560 -c 2 -a 0 -i 18 -k RTR 
- -t 1.054228251 -s 2 -d 0 -p tcp -e 1560 -c 2 -a 0 -i 18 -k RTR
h -t 1.054228251 -s 2 -d 0 -p tcp -e 1560 -c 2 -a 0 -i 18 -k RTR
r -t 1.054518071 -s 0 -d -1 -p ACK -e 38 -c 2 -a 0 -i 0 -k MAC
+ -t 1.054987251 -s 2 -d -1 -p RTS -e 44 -c 2 -a 0 -i 0 -k MAC 
- -t 1.054987251 -s 2 -d -1 -p RTS -e 44 -c 2 -a 0 -i 0 -k MAC
h -t 1.054987251 -s 2 -d -1 -p RTS -e 44 -c 2 -a 0 -i 0 -k MAC
r -t 1.055340071 -s 0 -d -1 -p RTS -e 44 -c 2 -a 0 -i 0 -k MAC
+ -t 1.055350071 -s 0 -d -1 -p CTS -e 38 -c 2 -a 0 -i 0 -k MAC 
- -t 1.055350071 -s 0 -d -1 -p CTS -e 38 -c 2 -a 0 -i 0 -k MAC
h -t 1.055350071 -s 0 -d -1 -p CTS -e 38 -c 2 -a 0 -i 0 -k MAC
r -t 1.055654891 -s 2 -d -1 -p CTS -e 38 -c 2 -a 0 -i 0 -k MAC
+ -t 1.055664891 -s 2 -d 0 -p tcp -e 1618 -c 2 -a 0 -i 10 -k MAC 
- -t 1.055664891 -s 2 -d 0 -p tcp -e 1618 -c 2 -a 0 -i 10 -k MAC
h -t 1.055664891 -s 2 -d 0 -p tcp -e 1618 -c 2 -a 0 -i 10 -k MAC
r -t 1.068609711 -s 0 -d 0 -p tcp -e 1560 -c 2 -a 0 -i 10 -k MAC
+ -t 1.068619711 -s 0 -d -1 -p ACK -e 38 -c 2 -a 0 -i 0 -k MAC 
- -t 1.068619711 -s 0 -d -1 -p ACK -e 38 -c 2 -a 0 -i 0 -k MAC
h -t 1.068619711 -s 0 -d -1 -p ACK -e 38 -c 2 -a 0 -i 0 -k MAC
r -t 1.068634711 -s 0 -d 0 -p tcp -e 1560 -c 2 -a 0 -i 10 -k AGT
+ -t 1.068634711 -s 0 -d -1 -p ack -e 40 -c 2 -a 0 -i 19 -k AGT 
- -t 1.068634711 -s 0 -d -1 -p ack -e 40 -c 2 -a 0 -i 19 -k AGT
h -t 1.068634711 -s 0 -d -1 -p ack -e 40 -c 2 -a 0 -i 19 -k AGT
+ -t 1.068634711 -s 0 -d 2 -p ack -e 60 -c 2 -a 0 -i 19 -k RTR 
- -t 1.068634711 -s 0 -d 2 -p ack -e 60 -c 2 -a 0 -i 19 -k RTR
h -t 1.068634711 -s 0 -d 2 -p ack -e 60 -c 2 -a 0 -i 19 -k RTR
r -t 1.068924531 -s 2 -d -1 -p ACK -e 38 -c 2 -a 0 -i 0 -k MAC
+ -t 1.069073711 -s 0 -d -1 -p RTS -e 44 -c 2 -a 0 -i 0 -k MAC 
- -t 1.069073711 -s 0 -d -1 -p RTS -e 44 -c 2 -a 0 -i 0 -k MAC
h -t 1.069073711 -s 0 -d -1 -p RTS -e 44 -c 2 -a 0 -i 0 -k MAC
r -t 1.069426532 -s 4 -d -1 -p RTS -e 44 -c 2 -a 0 -i 0 -k MAC
+ -t 1.069436532 -s 4 -d -1 -p CTS -e 38 -c 2 -a 0 -i 0 -k MAC 
- -t 1.069436532 -s 4 -d -1 -p CTS -e 38 -c 2 -a 0 -i 0 -k MAC
h -t 1.069436532 -s 4 -d -1 -p CTS -e 38 -c 2 -a 0 -i 0 -k MAC
r -t 1.069741353 -s 0 -d -1 -p CTS -e 38 -c 2 -a 0 -i 0 -k MAC
+ -t 1.069751353 -s 0 -d 4 -p ack -e 118 -c 2 -a 0 -i 16 -k MAC 
- -t 1.069751353 -s 0 -d 4 -p ack -e 118 -c 2 -a 0 -i 16 -k MAC
h -t 1.069751353 -s 0 -d 4 -p ack -e 118 -c 2 -a 0 -i 16 -k MAC
r -t 1.070696175 -s 4 -d 4 -p ack -e 60 -c 2 -a 0 -i 16 -k MAC
+ -t 1.070706175 -s 4 -d -1 -p ACK -e 38 -c 2 -a 0 -i 0 -k MAC 
- -t 1.070706175 -s 4 -d -1 -p ACK -e 38 -c 2 -a 0 -i 0 -k MAC
h -t 1.070706175 -s 4 -d -1 -p ACK -e 38 -c 2 -a 0 -i 0 -k MAC
r -t 1.070721175 -s 4 -d 4 -p ack -e 60 -c 2 -a 0 -i 16 -k AGT
+ -t 1.070721175 -s 4 -d -1 -p tcp -e 1540 -c 2 -a 0 -i 20 -k AGT 
- -t 1.070721175 -s 4 -d -1 -p tcp -e 1540 -c 2 -a 0 -i 20 -k AGT
h -t 1.070721175 -s 4 -d -1 -p tcp -e 1540 -c 2 -a 0 -i 20 -k AGT
+ -t 1.070721175 -s 4 -d 0 -p tcp -e 1560 -c 2 -a 0 -i 20 -k RTR 
- -t 1.070721175 -s 4 -d 0 -p tcp -e 1560 -c 2 -a 0 -i 20 -k RTR
h -t 1.070721175 -s 4 -d 0 -p tcp -e 1560 -c 2 -a 0 -i 20 -k RTR
+ -t 1.070721175 -s 4 -d -1 -p tcp -e 1540 -c 2 -a 0 -i 21 -k AGT 
- -t 1.070721175 -s 4 -d -1 -p tcp -e 1540 -c 2 -a 0 -i 21 -k AGT
h -t 1.070721175 -s 4 -d -1 -p tcp -e 1540 -c 2 -a 0 -i 21 -k AGT
+ -t 1.070721175 -s 4 -d 0 -p tcp -e 1560 -c 2 -a 0 -i 21 -k RTR 
- -t 1.070721175 -s 4 -d 0 -p tcp -e 1560 -c 2 -a 0 -i 21 -k RTR
h -t 1.070721175 -s 4 -d 0 -p tcp -e 1560 -c 2 -a 0 -i 21 -k RTR
r -t 1.071010996 -s 0 -d -1 -p ACK -e 38 -c 2 -a 0 -i 0 -k MAC
+ -t 1.071240996 -s 0 -d -1 -p RTS -e 44 -c 2 -a 0 -i 0 -k MAC 
- -t 1.071240996 -s 0 -d -1 -p RTS -e 44 -c 2 -a 0 -i 0 -k MAC
h -t 1.071240996 -s 0 -d -1 -p RTS -e 44 -c 2 -a 0 -i 0 -k MAC
r -t 1.071593816 -s 2 -d -1 -p RTS -e 44 -c 2 -a 0 -i 0 -k MAC
+ -t 1.071603816 -s 2 -d -1 -p CTS -e 38 -c 2 -a 0 -i 0 -k MAC 
- -t 1.071603816 -s 2 -d -1 -p CTS -e 38 -c 2 -a 0 -i 0 -k MAC
h -t 1.071603816 -s 2 -d -1 -p CTS -e 38 -c 2 -a 0 -i 0 -k MAC
r -t 1.071908636 -s 0 -d -1 -p CTS -e 38 -c 2 -a 0 -i 0 -k MAC
+ -t 1.071918636 -s 0 -d 2 -p ack -e 118 -c 2 -a 0 -i 19 -k MAC 
- -t 1.071918636 -s 0 -d 2 -p ack -e 118 -c 2 -a 0 -i 19 -k MAC
h -t 1.071918636 -s 0 -d 2 -p ack -e 118 -c 2 -a 0 -i 19 -k MAC
r -t 1.072863456 -s 2 -d 2 -p ack -e 60 -c 2 -a 0 -i 19 -k MAC
+ -t 1.072873456 -s 2 -d -1 -p ACK -e 38 -c 2 -a 0 -i 0 -k MAC 
- -t 1.072873456 -s 2 -d -1 -p ACK -e 38 -c 2 -a 0 -i 0 -k MAC
h -t 1.072873456 -s 2 -d -1 -p ACK -e 38 -c 2 -a 0 -i 0 -k MAC
r -t 1.072888456 -s 2 -d 2 -p ack -e 60 -c 2 -a 0 -i 19 -k AGT
+ -t 1.072888456 -s 2 -d -1 -p tcp -e 1540 -c 2 -a 0 -i 22 -k AGT 
- -t 1.072888456 -s 2 -d -1 -p tcp -e 1540 -c 2 -a 0 -i 22 -k AGT
h -t 1.072888456 -s 2 -d -1 -p tcp -e 1540 -c 2 -a 0 -i 22 -k AGT
+ -t 1.072888456 -s 2 -d 0 -p tcp -e 1560 -c 2 -a 0 -i 22 -k RTR 
- -t 1.072888456 -s 2 -d 0 -p tcp -e 1560 -c 2 -a 0 -i 22 -k RTR
h -t 1.072888456 -s 2 -d 0 -p tcp -e 1560 -c 2 -a 0 -i 22 -k RTR
+ -t 1.072888456 -s 2 -d -1 -p tcp -e 1540 -c 2 -a 0 -i 23 -k AGT 
- -t 1.072888456 -s 2 -d -1 -p tcp -e 1540 -c 2 -a 0 -i 23 -k AGT
h -t 1.072888456 -s 2 -d -1 -p tcp -e 1540 -c 2 -a 0 -i 23 -k AGT
+ -t 1.072888456 -s 2 -d 0 -p tcp -e 1560 -c 2 -a 0 -i 23 -k RTR 
- -t 1.072888456 -s 2 -d 0 -p tcp -e 1560 -c 2 -a 0 -i 23 -k RTR
h -t 1.072888456 -s 2 -d 0 -p tcp -e 1560 -c 2 -a 0 -i 23 -k RTR
r -t 1.073178276 -s 0 -d -1 -p ACK -e 38 -c 2 -a 0 -i 0 -k MAC
+ -t 1.073427456 -s 2 -d -1 -p RTS -e 44 -c 2 -a 0 -i 0 -k MAC 
- -t 1.073427456 -s 2 -d -1 -p RTS -e 44 -c 2 -a 0 -i 0 -k MAC
h -t 1.073427456 -s 2 -d -1 -p RTS -e 44 -c 2 -a 0 -i 0 -k MAC
r -t 1.073780276 -s 0 -d -1 -p RTS -e 44 -c 2 -a 0 -i 0 -k MAC
+ -t 1.073790276 -s 0 -d -1 -p CTS -e 38 -c 2 -a 0 -i 0 -k MAC 
- -t 1.073790276 -s 0 -d -1 -p CTS -e 38 -c 2 -a 0 -i 0 -k MAC
h -t 1.073790276 -s 0 -d -1 -p CTS -e 38 -c 2 -a 0 -i 0 -k MAC
r -t 1.074095096 -s 2 -d -1 -p CTS -e 38 -c 2 -a 0 -i 0 -k MAC
+ -t 1.074105096 -s 2 -d 0 -p tcp -e 1618 -c 2 -a 0 -i 17 -k MAC 
- -t 1.074105096 -s 2 -d 0 -p tcp -e 1618 -c 2 -a 0 -i 17 -k MAC
h -t 1.074105096 -s 2 -d 0 -p tcp -e 1618 -c 2 -a 0 -i 17 -k MAC
r -t 1.087049916 -s 0 -d 0 -p tcp -e 1560 -c 2 -a 0 -i 17 -k MAC
+ -t 1.087059916 -s 0 -d -1 -p ACK -e 38 -c 2 -a 0 -i 0 -k MAC 
- -t 1.087059916 -s 0 -d -1 -p ACK -e 38 -c 2 -a 0 -i 0 -k MAC
h -t 1.087059916 -s 0 -d -1 -p ACK -e 38 -c 2 -a 0 -i 0 -k MAC
r -t 1.087074916 -s 0 -d 0 -p tcp -e 1560 -c 2 -a 0 -i 17 -k AGT
+ -t 1.087074916 -s 0 -d -1 -p ack -e 40 -c 2 -a 0 -i 24 -k AGT 
- -t 1.087074916 -s 0 -d -1 -p ack -e 40 -c 2 -a 0 -i 24 -k AGT
h -t 1.087074916 -s 0 -d -1 -p ack -e 40 -c 2 -a 0 -i 24 -k AGT
+ -t 1.087074916 -s 0 -d 2 -p ack -e 60 -c 2 -a 0 -i 24 -k RTR 
- -t 1.087074916 -s 0 -d 2 -p ack -e 60 -c 2 -a 0 -i 24 -k RTR
h -t 1.087074916 -s 0 -d 2 -p ack -e 60 -c 2 -a 0 -i 24 -k RTR
r -t 1.087364736 -s 2 -d -1 -p ACK -e 38 -c 2 -a 0 -i 0 -k MAC
+ -t 1.087484680 -s 4 -d -1 -p RTS -e 44 -c 2 -a 0 -i 0 -k MAC 
- -t 1.087484680 -s 4 -d -1 -p RTS -e 44 -c 2 -a 0 -i 0 -k MAC
h -t 1.087484680 -s 4 -d -1 -p RTS -e 44 -c 2 -a 0 -i 0 -k MAC
r -t 1.087837502 -s 0 -d -1 -p RTS -e 44 -c 2 -a 0 -i 0 -k MAC
+ -t 1.087847502 -s 0 -d -1 -p CTS -e 38 -c 2 -a 0 -i 0 -k MAC 
- -t 1.087847502 -s 0 -d -1 -p CTS -e 38 -c 2 -a 0 -i 0 -k MAC