s 0.475592155 _4_ RTR  --- 0 message 32 [0 0 0 0] ------- [4:255 -1:255 32 0] 
s 0.475907155 _4_ MAC  --- 0 message 90 [0 ffffffff 4 800] ------- [4:255 -1:255 32 0] 
r 0.476627976 _0_ MAC  --- 0 message 32 [0 ffffffff 4 800] ------- [4:255 -1:255 32 0] 
r 0.476652976 _0_ RTR  --- 0 message 32 [0 ffffffff 4 800] ------- [4:255 -1:255 32 0] 
s 0.626351489 _2_ RTR  --- 1 message 32 [0 0 0 0] ------- [2:255 -1:255 32 0] 
s 0.626786489 _2_ MAC  --- 1 message 90 [0 ffffffff 2 800] ------- [2:255 -1:255 32 0] 
r 0.627507309 _0_ MAC  --- 1 message 32 [0 ffffffff 2 800] ------- [2:255 -1:255 32 0] 
r 0.627532309 _0_ RTR  --- 1 message 32 [0 ffffffff 2 800] ------- [2:255 -1:255 32 0] 
s 0.886583331 _0_ RTR  --- 2 message 32 [0 0 0 0] ------- [0:255 -1:255 32 0] 
s 0.886998331 _0_ MAC  --- 2 message 90 [0 ffffffff 0 800] ------- [0:255 -1:255 32 0] 
r 0.887719038 _1_ MAC  --- 2 message 32 [0 ffffffff 0 800] ------- [0:255 -1:255 32 0] 
r 0.887719128 _3_ MAC  --- 2 message 32 [0 ffffffff 0 800] ------- [0:255 -1:255 32 0] 
r 0.887719151 _2_ MAC  --- 2 message 32 [0 ffffffff 0 800] ------- [0:255 -1:255 32 0] 
r 0.887719153 _4_ MAC  --- 2 message 32 [0 ffffffff 0 800] ------- [0:255 -1:255 32 0] 
r 0.887744038 _1_ RTR  --- 2 message 32 [0 ffffffff 0 800] ------- [0:255 -1:255 32 0] 
r 0.887744128 _3_ RTR  --- 2 message 32 [0 ffffffff 0 800] ------- [0:255 -1:255 32 0] 
r 0.887744151 _2_ RTR  --- 2 message 32 [0 ffffffff 0 800] ------- [0:255 -1:255 32 0] 
r 0.887744153 _4_ RTR  --- 2 message 32 [0 ffffffff 0 800] ------- [0:255 -1:255 32 0] 
s 1.000000000 _1_ AGT  --- 3 tcp 40 [0 0 0 0] ------- [1:0 0:0 32 0] [0 0] 0 0
r 1.000000000 _1_ RTR  --- 3 tcp 40 [0 0 0 0] ------- [1:0 0:0 32 0] [0 0] 0 0
s 1.000000000 _1_ RTR  --- 3 tcp 60 [0 0 0 0] ------- [1:0 0:0 32 0] [0 0] 0 0
s 1.000000000 _2_ AGT  --- 4 tcp 40 [0 0 0 0] ------- [2:0 0:1 32 0] [0 0] 0 0
r 1.000000000 _2_ RTR  --- 4 tcp 40 [0 0 0 0] ------- [2:0 0:1 32 0] [0 0] 0 0
s 1.000000000 _2_ RTR  --- 4 tcp 60 [0 0 0 0] ------- [2:0 0:1 32 0] [0 0] 0 0
s 1.000000000 _3_ AGT  --- 5 tcp 40 [0 0 0 0] ------- [3:0 0:2 32 0] [0 0] 0 0
r 1.000000000 _3_ RTR  --- 5 tcp 40 [0 0 0 0] ------- [3:0 0:2 32 0] [0 0] 0 0
s 1.000000000 _3_ RTR  --- 5 tcp 60 [0 0 0 0] ------- [3:0 0:2 32 0] [0 0] 0 0
s 1.000000000 _4_ AGT  --- 6 tcp 40 [0 0 0 0] ------- [4:0 0:3 32 0] [0 0] 0 0
r 1.000000000 _4_ RTR  --- 6 tcp 40 [0 0 0 0] ------- [4:0 0:3 32 0] [0 0] 0 0
s 1.000000000 _4_ RTR  --- 6 tcp 60 [0 0 0 0] ------- [4:0 0:3 32 0] [0 0] 0 0
s 1.000075000 _3_ MAC  --- 0 ARP 86 [0 ffffffff 3 806] ------- [REQUEST 3/3 0/0]
r 1.000763796 _0_ MAC  --- 0 ARP 28 [0 ffffffff 3 806] ------- [REQUEST 3/3 0/0]
s 1.000998796 _0_ MAC  --- 0 RTS 44 [52e 3 0 0] 
r 1.001351593 _3_ MAC  --- 0 RTS 44 [52e 3 0 0] 
s 1.001361593 _3_ MAC  --- 0 CTS 38 [3f4 0 0 0] 
r 1.001666389 _0_ MAC  --- 0 CTS 38 [3f4 0 0 0] 
s 1.001676389 _0_ MAC  --- 0 ARP 86 [13a 3 0 806] ------- [REPLY 0/0 3/3]
r 1.002365186 _3_ MAC  --- 0 ARP 28 [13a 3 0 806] ------- [REPLY 0/0 3/3]
s 1.002375186 _3_ MAC  --- 0 ACK 38 [0 0 0 0] 
r 1.002679982 _0_ MAC  --- 0 ACK 38 [0 0 0 0] 
s 1.002989186 _3_ MAC  --- 0 RTS 44 [62e 0 3 0] 
r 1.003341982 _0_ MAC  --- 0 RTS 44 [62e 0 3 0] 
s 1.003351982 _0_ MAC  --- 0 CTS 38 [4f4 3 0 0] 
r 1.003656779 _3_ MAC  --- 0 CTS 38 [4f4 3 0 0] 
s 1.003666779 _3_ MAC  --- 5 tcp 118 [13a 0 3 800] ------- [3:0 0:2 32 0] [0 0] 0 0
r 1.004611575 _0_ MAC  --- 5 tcp 60 [13a 0 3 800] ------- [3:0 0:2 32 0] [0 0] 1 0
s 1.004621575 _0_ MAC  --- 0 ACK 38 [0 3 0 0] 
r 1.004636575 _0_ AGT  --- 5 tcp 60 [13a 0 3 800] ------- [3:0 0:2 32 0] [0 0] 1 0
s 1.004636575 _0_ AGT  --- 7 ack 40 [0 0 0 0] ------- [0:2 3:0 32 0] [0 0] 0 0
r 1.004636575 _0_ RTR  --- 7 ack 40 [0 0 0 0] ------- [0:2 3:0 32 0] [0 0] 0 0
r 1.004926372 _3_ MAC  --- 0 ACK 38 [0 3 0 0] 
s 1.005206238 _1_ MAC  --- 0 ARP 86 [0 ffffffff 1 806] ------- [REQUEST 1/1 0/0]
r 1.005894944 _0_ MAC  --- 0 ARP 28 [0 ffffffff 1 806] ------- [REQUEST 1/1 0/0]
s 1.006064944 _0_ MAC  --- 0 RTS 44 [52e 1 0 0] 
r 1.006417650 _1_ MAC  --- 0 RTS 44 [52e 1 0 0] 
s 1.006427650 _1_ MAC  --- 0 CTS 38 [3f4 0 0 0] 
r 1.006732356 _0_ MAC  --- 0 CTS 38 [3f4 0 0 0] 
s 1.006742356 _0_ MAC  --- 0 ARP 86 [13a 1 0 806] ------- [REPLY 0/0 1/1]
r 1.007431062 _1_ MAC  --- 0 ARP 28 [13a 1 0 806] ------- [REPLY 0/0 1/1]
s 1.007441062 _1_ MAC  --- 0 ACK 38 [0 0 0 0] 
r 1.007745768 _0_ MAC  --- 0 ACK 38 [0 0 0 0] 
s 1.008179954 _2_ MAC  --- 0 ARP 86 [0 ffffffff 2 806] ------- [REQUEST 2/2 0/0]
r 1.008868774 _0_ MAC  --- 0 ARP 28 [0 ffffffff 2 806] ------- [REQUEST 2/2 0/0]
s 1.009223774 _0_ MAC  --- 0 RTS 44 [52e 2 0 0] 
r 1.009576594 _2_ MAC  --- 0 RTS 44 [52e 2 0 0] 
s 1.009586594 _2_ MAC  --- 0 CTS 38 [3f4 0 0 0] 
r 1.009891414 _0_ MAC  --- 0 CTS 38 [3f4 0 0 0] 
s 1.009901414 _0_ MAC  --- 0 ARP 86 [13a 2 0 806] ------- [REPLY 0/0 2/2]
r 1.010590234 _2_ MAC  --- 0 ARP 28 [13a 2 0 806] ------- [REPLY 0/0 2/2]
s 1.010600234 _2_ MAC  --- 0 ACK 38 [0 0 0 0] 
r 1.010905054 _0_ MAC  --- 0 ACK 38 [0 0 0 0] 
s 1.011314234 _2_ MAC  --- 0 RTS 44 [62e 0 2 0] 
r 1.011667054 _0_ MAC  --- 0 RTS 44 [62e 0 2 0] 
s 1.011677054 _0_ MAC  --- 0 CTS 38 [4f4 2 0 0] 
r 1.011981874 _2_ MAC  --- 0 CTS 38 [4f4 2 0 0] 
s 1.011991874 _2_ MAC  --- 4 tcp 118 [13a 0 2 800] ------- [2:0 0:1 32 0] [0 0] 0 0
r 1.012936694 _0_ MAC  --- 4 tcp 60 [13a 0 2 800] ------- [2:0 0:1 32 0] [0 0] 1 0
s 1.012946694 _0_ MAC  --- 0 ACK 38 [0 2 0 0] 
r 1.012961694 _0_ AGT  --- 4 tcp 60 [13a 0 2 800] ------- [2:0 0:1 32 0] [0 0] 1 0
s 1.012961694 _0_ AGT  --- 8 ack 40 [0 0 0 0] ------- [0:1 2:0 32 0] [0 0] 0 0
r 1.012961694 _0_ RTR  --- 8 ack 40 [0 0 0 0] ------- [0:1 2:0 32 0] [0 0] 0 0
s 1.012961694 _0_ RTR  --- 8 ack 60 [0 0 0 0] ------- [0:1 2:0 32 2] [0 0] 0 0
r 1.013251514 _2_ MAC  --- 0 ACK 38 [0 2 0 0] 
s 1.013371458 _4_ MAC  --- 0 ARP 86 [0 ffffffff 4 806] ------- [REQUEST 4/4 0/0]
r 1.014060279 _0_ MAC  --- 0 ARP 28 [0 ffffffff 4 806] ------- [REQUEST 4/4 0/0]
s 1.014130279 _0_ MAC  --- 0 RTS 44 [62e 2 0 0] 
r 1.014483099 _2_ MAC  --- 0 RTS 44 [62e 2 0 0] 
s 1.014493099 _2_ MAC  --- 0 CTS 38 [4f4 0 0 0] 
r 1.014797919 _0_ MAC  --- 0 CTS 38 [4f4 0 0 0] 
s 1.014807919 _0_ MAC  --- 8 ack 118 [13a 2 0 800] ------- [0:1 2:0 32 2] [0 0] 0 0
r 1.015752740 _2_ MAC  --- 8 ack 60 [13a 2 0 800] ------- [0:1 2:0 32 2] [0 0] 1 0
s 1.015762740 _2_ MAC  --- 0 ACK 38 [0 0 0 0] 
r 1.015777740 _2_ AGT  --- 8 ack 60 [13a 2 0 800] ------- [0:1 2:0 32 2] [0 0] 1 0
s 1.015777740 _2_ AGT  --- 9 tcp 1540 [0 0 0 0] ------- [2:0 0:1 32 0] [1 0] 0 0
r 1.015777740 _2_ RTR  --- 9 tcp 1540 [0 0 0 0] ------- [2:0 0:1 32 0] [1 0] 0 0
s 1.015777740 _2_ RTR  --- 9 tcp 1560 [0 0 0 0] ------- [2:0 0:1 32 0] [1 0] 0 0
s 1.015777740 _2_ AGT  --- 10 tcp 1540 [0 0 0 0] ------- [2:0 0:1 32 0] [2 0] 0 0
r 1.015777740 _2_ RTR  --- 10 tcp 1540 [0 0 0 0] ------- [2:0 0:1 32 0] [2 0] 0 0
s 1.015777740 _2_ RTR  --- 10 tcp 1560 [0 0 0 0] ------- [2:0 0:1 32 0] [2 0] 0 0
r 1.016067560 _0_ MAC  --- 0 ACK 38 [0 0 0 0] 
s 1.016217560 _0_ MAC  --- 0 RTS 44 [52e 4 0 0] 
r 1.016570381 _4_ MAC  --- 0 RTS 44 [52e 4 0 0] 
s 1.016580381 _4_ MAC  --- 0 CTS 38 [3f4 0 0 0] 
r 1.016885202 _0_ MAC  --- 0 CTS 38 [3f4 0 0 0] 
s 1.016895202 _0_ MAC  --- 0 ARP 86 [13a 4 0 806] ------- [REPLY 0/0 4/4]
r 1.017584024 _4_ MAC  --- 0 ARP 28 [13a 4 0 806] ------- [REPLY 0/0 4/4]
s 1.017594024 _4_ MAC  --- 0 ACK 38 [0 0 0 0] 
r 1.017898845 _0_ MAC  --- 0 ACK 38 [0 0 0 0] 
s 1.018128024 _4_ MAC  --- 0 RTS 44 [62e 0 4 0] 
r 1.018480845 _0_ MAC  --- 0 RTS 44 [62e 0 4 0] 
s 1.018490845 _0_ MAC  --- 0 CTS 38 [4f4 4 0 0] 
r 1.018795666 _4_ MAC  --- 0 CTS 38 [4f4 4 0 0] 
s 1.018805666 _4_ MAC  --- 6 tcp 118 [13a 0 4 800] ------- [4:0 0:3 32 0] [0 0] 0 0
r 1.019750488 _0_ MAC  --- 6 tcp 60 [13a 0 4 800] ------- [4:0 0:3 32 0] [0 0] 1 0
s 1.019760488 _0_ MAC  --- 0 ACK 38 [0 4 0 0] 
r 1.019775488 _0_ AGT  --- 6 tcp 60 [13a 0 4 800] ------- [4:0 0:3 32 0] [0 0] 1 0
s 1.019775488 _0_ AGT  --- 11 ack 40 [0 0 0 0] ------- [0:3 4:0 32 0] [0 0] 0 0
r 1.019775488 _0_ RTR  --- 11 ack 40 [0 0 0 0] ------- [0:3 4:0 32 0] [0 0] 0 0
s 1.019775488 _0_ RTR  --- 11 ack 60 [0 0 0 0] ------- [0:3 4:0 32 4] [0 0] 0 0
r 1.020065309 _4_ MAC  --- 0 ACK 38 [0 4 0 0] 
s 1.020185098 _1_ MAC  --- 0 RTS 44 [62e 0 1 0] 
r 1.020537804 _0_ MAC  --- 0 RTS 44 [62e 0 1 0] 
s 1.020547804 _0_ MAC  --- 0 CTS 38 [4f4 1 0 0] 
r 1.020852511 _1_ MAC  --- 0 CTS 38 [4f4 1 0 0] 
s 1.020862511 _1_ MAC  --- 3 tcp 118 [13a 0 1 800] ------- [1:0 0:0 32 0] [0 0] 0 0
r 1.021807217 _0_ MAC  --- 3 tcp 60 [13a 0 1 800] ------- [1:0 0:0 32 0] [0 0] 1 0
s 1.021817217 _0_ MAC  --- 0 ACK 38 [0 1 0 0] 
r 1.021832217 _0_ AGT  --- 3 tcp 60 [13a 0 1 800] ------- [1:0 0:0 32 0] [0 0] 1 0
s 1.021832217 _0_ AGT  --- 12 ack 40 [0 0 0 0] ------- [0:0 1:0 32 0] [0 0] 0 0
r 1.021832217 _0_ RTR  --- 12 ack 40 [0 0 0 0] ------- [0:0 1:0 32 0] [0 0] 0 0
r 1.022121923 _1_ MAC  --- 0 ACK 38 [0 1 0 0] 
s 1.022321402 _2_ MAC  --- 0 RTS 44 [350e 0 2 0] 
r 1.022674222 _0_ MAC  --- 0 RTS 44 [350e 0 2 0] 
s 1.022684222 _0_ MAC  --- 0 CTS 38 [33d4 2 0 0] 
r 1.022989042 _2_ MAC  --- 0 CTS 38 [33d4 2 0 0] 
s 1.022999042 _2_ MAC  --- 9 tcp 1618 [13a 0 2 800] ------- [2:0 0:1 32 0] [1 0] 0 0
r 1.035943863 _0_ MAC  --- 9 tcp 1560 [13a 0 2 800] ------- [2:0 0:1 32 0] [1 0] 1 0
s 1.035953863 _0_ MAC  --- 0 ACK 38 [0 2 0 0] 
r 1.035968863 _0_ AGT  --- 9 tcp 1560 [13a 0 2 800] ------- [2:0 0:1 32 0] [1 0] 1 0
s 1.035968863 _0_ AGT  --- 13 ack 40 [0 0 0 0] ------- [0:1 2:0 32 0] [1 0] 0 0
r 1.035968863 _0_ RTR  --- 13 ack 40 [0 0 0 0] ------- [0:1 2:0 32 0] [1 0] 0 0
s 1.035968863 _0_ RTR  --- 13 ack 60 [0 0 0 0] ------- [0:1 2:0 32 2] [1 0] 0 0
r 1.036258683 _2_ MAC  --- 0 ACK 38 [0 2 0 0] 
s 1.036467863 _0_ MAC  --- 0 RTS 44 [62e 4 0 0] 
r 1.036820684 _4_ MAC  --- 0 RTS 44 [62e 4 0 0] 
s 1.036830684 _4_ MAC  --- 0 CTS 38 [4f4 0 0 0] 
r 1.037135505 _0_ MAC  --- 0 CTS 38 [4f4 0 0 0] 
s 1.037145505 _0_ MAC  --- 11 ack 118 [13a 4 0 800] ------- [0:3 4:0 32 4] [0 0] 0 0
r 1.038090327 _4_ MAC  --- 11 ack 60 [13a 4 0 800] ------- [0:3 4:0 32 4] [0 0] 1 0
s 1.038100327 _4_ MAC  --- 0 ACK 38 [0 0 0 0] 
r 1.038115327 _4_ AGT  --- 11 ack 60 [13a 4 0 800] ------- [0:3 4:0 32 4] [0 0] 1 0
s 1.038115327 _4_ AGT  --- 14 tcp 1540 [0 0 0 0] ------- [4:0 0:3 32 0] [1 0] 0 0
r 1.038115327 _4_ RTR  --- 14 tcp 1540 [0 0 0 0] ------- [4:0 0:3 32 0] [1 0] 0 0
s 1.038115327 _4_ RTR  --- 14 tcp 1560 [0 0 0 0] ------- [4:0 0:3 32 0] [1 0] 0 0
s 1.038115327 _4_ AGT  --- 15 tcp 1540 [0 0 0 0] ------- [4:0 0:3 32 0] [2 0] 0 0
r 1.038115327 _4_ RTR  --- 15 tcp 1540 [0 0 0 0] ------- [4:0 0:3 32 0] [2 0] 0 0
s 1.038115327 _4_ RTR  --- 15 tcp 1560 [0 0 0 0] ------- [4:0 0:3 32 0] [2 0] 0 0
r 1.038405148 _0_ MAC  --- 0 ACK 38 [0 0 0 0] 
s 1.038514327 _4_ MAC  --- 0 RTS 44 [350e 0 4 0] 
r 1.038867148 _0_ MAC  --- 0 RTS 44 [350e 0 4 0] 
s 1.038877148 _0_ MAC  --- 0 CTS 38 [33d4 4 0 0] 
r 1.039181969 _4_ MAC  --- 0 CTS 38 [33d4 4 0 0] 
s 1.039191969 _4_ MAC  --- 14 tcp 1618 [13a 0 4 800] ------- [4:0 0:3 32 0] [1 0] 0 0
r 1.052136790 _0_ MAC  --- 14 tcp 1560 [13a 0 4 800] ------- [4:0 0:3 32 0] [1 0] 1 0
s 1.052146790 _0_ MAC  --- 0 ACK 38 [0 4 0 0] 
r 1.052161790 _0_ AGT  --- 14 tcp 1560 [13a 0 4 800] ------- [4:0 0:3 32 0] [1 0] 1 0
s 1.052161790 _0_ AGT  --- 16 ack 40 [0 0 0 0] ------- [0:3 4:0 32 0] [1 0] 0 0
r 1.052161790 _0_ RTR  --- 16 ack 40 [0 0 0 0] ------- [0:3 4:0 32 0] [1 0] 0 0
s 1.052161790 _0_ RTR  --- 16 ack 60 [0 0 0 0] ------- [0:3 4:0 32 4] [1 0] 0 0
r 1.052451612 _4_ MAC  --- 0 ACK 38 [0 4 0 0] 
s 1.052580790 _0_ MAC  --- 0 RTS 44 [62e 2 0 0] 
r 1.052933611 _2_ MAC  --- 0 RTS 44 [62e 2 0 0] 
s 1.052943611 _2_ MAC  --- 0 CTS 38 [4f4 0 0 0] 
r 1.053248431 _0_ MAC  --- 0 CTS 38 [4f4 0 0 0] 
s 1.053258431 _0_ MAC  --- 13 ack 118 [13a 2 0 800] ------- [0:1 2:0 32 2] [1 0] 0 0
r 1.054203251 _2_ MAC  --- 13 ack 60 [13a 2 0 800] ------- [0:1 2:0 32 2] [1 0] 1 0
s 1.054213251 _2_ MAC  --- 0 ACK 38 [0 0 0 0] 
r 1.054228251 _2_ AGT  --- 13 ack 60 [13a 2 0 800] ------- [0:1 2:0 32 2] [1 0] 1 0
s 1.054228251 _2_ AGT  --- 17 tcp 1540 [0 0 0 0] ------- [2:0 0:1 32 0] [3 0] 0 0
r 1.054228251 _2_ RTR  --- 17 tcp 1540 [0 0 0 0] ------- [2:0 0:1 32 0] [3 0] 0 0
s 1.054228251 _2_ RTR  --- 17 tcp 1560 [0 0 0 0] ------- [2:0 0:1 32 0] [3 0] 0 0
s 1.054228251 _2_ AGT  --- 18 tcp 1540 [0 0 0 0] ------- [2:0 0:1 32 0] [4 0] 0 0
r 1.054228251 _2_ RTR  --- 18 tcp 1540 [0 0 0 0] ------- [2:0 0:1 32 0] [4 0] 0 0
s 1.054228251 _2_ RTR  --- 18 tcp 1560 [0 0 0 0] ------- [2:0 0:1 32 0] [4 0] 0 0
r 1.054518071 _0_ MAC  --- 0 ACK 38 [0 0 0 0] 
s 1.054987251 _2_ MAC  --- 0 RTS 44 [350e 0 2 0] 
r 1.055340071 _0_ MAC  --- 0 RTS 44 [350e 0 2 0] 
s 1.055350071 _0_ MAC  --- 0 CTS 38 [33d4 2 0 0] 
r 1.055654891 _2_ MAC  --- 0 CTS 38 [33d4 2 0 0] 
s 1.055664891 _2_ MAC  --- 10 tcp 1618 [13a 0 2 800] ------- [2:0 0:1 32 0] [2 0] 0 0
r 1.068609711 _0_ MAC  --- 10 tcp 1560 [13a 0 2 800] ------- [2:0 0:1 32 0] [2 0] 1 0
s 1.068619711 _0_ MAC  --- 0 ACK 38 [0 2 0 0] 
r 1.068634711 _0_ AGT  --- 10 tcp 1560 [13a 0 2 800] ------- [2:0 0:1 32 0] [2 0] 1 0
s 1.068634711 _0_ AGT  --- 19 ack 40 [0 0 0 0] ------- [0:1 2:0 32 0] [2 0] 0 0
r 1.068634711 _0_ RTR  --- 19 ack 40 [0 0 0 0] ------- [0:1 2:0 32 0] [2 0] 0 0
s 1.068634711 _0_ RTR  --- 19 ack 60 [0 0 0 0] ------- [0:1 2:0 32 2] [2 0] 0 0
r 1.068924531 _2_ MAC  --- 0 ACK 38 [0 2 0 0] 
s 1.069073711 _0_ MAC  --- 0 RTS 44 [62e 4 0 0] 
r 1.069426532 _4_ MAC  --- 0 RTS 44 [62e 4 0 0] 
s 1.069436532 _4_ MAC  --- 0 CTS 38 [4f4 0 0 0] 
r 1.069741353 _0_ MAC  --- 0 CTS 38 [4f4 0 0 0] 
s 1.069751353 _0_ MAC  --- 16 ack 118 [13a 4 0 800] ------- [0:3 4:0 32 4] [1 0] 0 0
r 1.070696175 _4_ MAC  --- 16 ack 60 [13a 4 0 800] ------- [0:3 4:0 32 4] [1 0] 1 0
s 1.070706175 _4_ MAC  --- 0 ACK 38 [0 0 0 0] 
r 1.070721175 _4_ AGT  --- 16 ack 60 [13a 4 0 800] ------- [0:3 4:0 32 4] [1 0] 1 0
s 1.070721175 _4_ AGT  --- 20 tcp 1540 [0 0 0 0] ------- [4:0 0:3 32 0] [3 0] 0 0
r 1.070721175 _4_ RTR  --- 20 tcp 1540 [0 0 0 0] ------- [4:0 0:3 32 0] [3 0] 0 0
s 1.070721175 _4_ RTR  --- 20 tcp 1560 [0 0 0 0] ------- [4:0 0:3 32 0] [3 0] 0 0
s 1.070721175 _4_ AGT  --- 21 tcp 1540 [0 0 0 0] ------- [4:0 0:3 32 0] [4 0] 0 0
r 1.070721175 _4_ RTR  --- 21 tcp 1540 [0 0 0 0] ------- [4:0 0:3 32 0] [4 0] 0 0
s 1.070721175 _4_ RTR  --- 21 tcp 1560 [0 0 0 0] ------- [4:0 0:3 32 0] [4 0] 0 0
r 1.071010996 _0_ MAC  --- 0 ACK 38 [0 0 0 0] 
s 1.071240996 _0_ MAC  --- 0 RTS 44 [62e 2 0 0] 
r 1.071593816 _2_ MAC  --- 0 RTS 44 [62e 2 0 0] 
s 1.071603816 _2_ MAC  --- 0 CTS 38 [4f4 0 0 0] 
r 1.071908636 _0_ MAC  --- 0 CTS 38 [4f4 0 0 0] 
s 1.071918636 _0_ MAC  --- 19 ack 118 [13a 2 0 800] ------- [0:1 2:0 32 2] [2 0] 0 0
r 1.072863456 _2_ MAC  --- 19 ack 60 [13a 2 0 800] ------- [0:1 2:0 32 2] [2 0] 1 0
s 1.072873456 _2_ MAC  --- 0 ACK 38 [0 0 0 0] 
r 1.072888456 _2_ AGT  --- 19 ack 60 [13a 2 0 800] ------- [0:1 2:0 32 2] [2 0] 1 0
s 1.072888456 _2_ AGT  --- 22 tcp 1540 [0 0 0 0] ------- [2:0 0:1 32 0] [5 0] 0 0
r 1.072888456 _2_ RTR  --- 22 tcp 1540 [0 0 0 0] ------- [2:0 0:1 32 0] [5 0] 0 0
s 1.072888456 _2_ RTR  --- 22 tcp 1560 [0 0 0 0] ------- [2:0 0:1 32 0] [5 0] 0 0
s 1.072888456 _2_ AGT  --- 23 tcp 1540 [0 0 0 0] ------- [2:0 0:1 32 0] [6 0] 0 0
r 1.072888456 _2_ RTR  --- 23 tcp 1540 [0 0 0 0] ------- [2:0 0:1 32 0] [6 0] 0 0
s 1.072888456 _2_ RTR  --- 23 tcp 1560 [0 0 0 0] ------- [2:0 0:1 32 0] [6 0] 0 0
r 1.073178276 _0_ MAC  --- 0 ACK 38 [0 0 0 0] 
s 1.073427456 _2_ MAC  --- 0 RTS 44 [350e 0 2 0] 
r 1.073780276 _0_ MAC  --- 0 RTS 44 [350e 0 2 0] 
s 1.073790276 _0_ MAC  --- 0 CTS 38 [33d4 2 0 0] 
r 1.074095096 _2_ MAC  --- 0 CTS 38 [33d4 2 0 0] 
s 1.074105096 _2_ MAC  --- 17 tcp 1618 [13a 0 2 800] ------- [2:0 0:1 32 0] [3 0] 0 0
r 1.087049916 _0_ MAC  --- 17 tcp 1560 [13a 0 2 800] ------- [2:0 0:1 32 0] [3 0] 1 0
s 1.087059916 _0_ MAC  --- 0 ACK 38 [0 2 0 0] 
r 1.087074916 _0_ AGT  --- 17 tcp 1560 [13a 0 2 800] ------- [2:0 0:1 32 0] [3 0] 1 0
s 1.087074916 _0_ AGT  --- 24 ack 40 [0 0 0 0] ------- [0:1 2:0 32 0] [3 0] 0 0
r 1.087074916 _0_ RTR  --- 24 ack 40 [0 0 0 0] ------- [0:1 2:0 32 0] [3 0] 0 0
s 1.087074916 _0_ RTR  --- 24 ack 60 [0 0 0 0] ------- [0:1 2:0 32 2] [3 0] 0 0
r 1.087364736 _2_ MAC  --- 0 ACK 38 [0 2 0 0] 
s 1.087484680 _4_ MAC  --- 0 RTS 44 [350e 0 4 0] 
r 1.087837502 _0_ MAC  --- 0 RTS 44 [350e 0 4 0] 
s 1.087847502 _0_ MAC  --- 0 CTS 38 [33d4 4 0 0] 
r 1.088152323 _4_ MAC  --- 0 CTS 38 [33d4 4 0 0] 
s 1.088162323 _4_ MAC  --- 15 tcp 1618 [13a 0 4 800] ------- [4:0 0:3 32 0] [2 0] 0 0
r 1.101107144 _0_ MAC  --- 15 tcp 1560 [13a 0 4 800] ------- [4:0 0:3 32 0] [2 0] 1 0
s 1.101117144 _0_ MAC  --- 0 ACK 38 [0 4 0 0] 
r 1.101132144 _0_ AGT  --- 15 tcp 1560 [13a 0 4 800] ------- [4:0 0:3 32 0] [2 0] 1 0
s 1.101132144 _0_ AGT  --- 25 ack 40 [0 0 0 0] ------- [0:3 4:0 32 0] [2 0] 0 0
r 1.101132144 _0_ RTR  --- 25 ack 40 [0 0 0 0] ------- [0:3 4:0 32 0] [2 0] 0 0
s 1.101132144 _0_ RTR  --- 25 ack 60 [0 0 0 0] ------- [0:3 4:0 32 4] [2 0] 0 0
r 1.101421966 _4_ MAC  --- 0 ACK 38 [0 4 0 0] 
s 1.101471966 _4_ MAC  --- 0 RTS 44 [350e 0 4 0] 
r 1.101824787 _0_ MAC  --- 0 RTS 44 [350e 0 4 0] 
s 1.101834787 _0_ MAC  --- 0 CTS 38 [33d4 4 0 0] 
r 1.102139608 _4_ MAC  --- 0 CTS 38 [33d4 4 0 0] 
s 1.102149608 _4_ MAC  --- 20 tcp 1618 [13a 0 4 800] ------- [4:0 0:3 32 0] [3 0] 0 0
r 1.115094430 _0_ MAC  --- 20 tcp 1560 [13a 0 4 800] ------- [4:0 0:3 32 0] [3 0] 1 0
s 1.115104430 _0_ MAC  --- 0 ACK 38 [0 4 0 0] 
r 1.115119430 _0_ AGT  --- 20 tcp 1560 [13a 0 4 800] ------- [4:0 0:3 32 0] [3 0] 1 0
s 1.115119430 _0_ AGT  --- 26 ack 40 [0 0 0 0] ------- [0:3 4:0 32 0] [3 0] 0 0
r 1.115119430 _0_ RTR  --- 26 ack 40 [0 0 0 0] ------- [0:3 4:0 32 0] [3 0] 0 0
s 1.115119430 _0_ RTR  --- 26 ack 60 [0 0 0 0] ------- [0:3 4:0 32 4] [3 0] 0 0
r 1.115409251 _4_ MAC  --- 0 ACK 38 [0 4 0 0] 
s 1.115498430 _0_ MAC  --- 0 RTS 44 [62e 2 0 0] 
r 1.115851250 _2_ MAC  --- 0 RTS 44 [62e 2 0 0] 
s 1.115861250 _2_ MAC  --- 0 CTS 38 [4f4 0 0 0] 
r 1.116166070 _0_ MAC  --- 0 CTS 38 [4f4 0 0 0] 
s 1.116176070 _0_ MAC  --- 24 ack 118 [13a 2 0 800] ------- [0:1 2:0 32 2] [3 0] 0 0
r 1.117120890 _2_ MAC  --- 24 ack 60 [13a 2 0 800] ------- [0:1 2:0 32 2] [3 0] 1 0
s 1.117130890 _2_ MAC  --- 0 ACK 38 [0 0 0 0] 
r 1.117145890 _2_ AGT  --- 24 ack 60 [13a 2 0 800] ------- [0:1 2:0 32 2] [3 0] 1 0
s 1.117145890 _2_ AGT  --- 27 tcp 1540 [0 0 0 0] ------- [2:0 0:1 32 0] [7 0] 0 0
r 1.117145890 _2_ RTR  --- 27 tcp 1540 [0 0 0 0] ------- [2:0 0:1 32 0] [7 0] 0 0
s 1.117145890 _2_ RTR  --- 27 tcp 1560 [0 0 0 0] ------- [2:0 0:1 32 0] [7 0] 0 0
s 1.117145890 _2_ AGT  --- 28 tcp 1540 [0 0 0 0] ------- [2:0 0:1 32 0] [8 0] 0 0
r 1.117145890 _2_ RTR  --- 28 tcp 1540 [0 0 0 0] ------- [2:0 0:1 32 0] [8 0] 0 0
s 1.117145890 _2_ RTR  --- 28 tcp 1560 [0 0 0 0] ------- [2:0 0:1 32 0] [8 0] 0 0
r 1.117435710 _0_ MAC  --- 0 ACK 38 [0 0 0 0] 
s 1.117805710 _0_ MAC  --- 0 RTS 44 [62e 4 0 0] 
r 1.118158531 _4_ MAC  --- 0 RTS 44 [62e 4 0 0] 
s 1.118168531 _4_ MAC  --- 0 CTS 38 [4f4 0 0 0] 
r 1.118473353 _0_ MAC  --- 0 CTS 38 [4f4 0 0 0] 
s 1.118483353 _0_ MAC  --- 25 ack 118 [13a 4 0 800] ------- [0:3 4:0 32 4] [2 0] 0 0
r 1.119428174 _4_ MAC  --- 25 ack 60 [13a 4 0 800] ------- [0:3 4:0 32 4] [2 0] 1 0
s 1.119438174 _4_ MAC  --- 0 ACK 38 [0 0 0 0] 
r 1.119453174 _4_ AGT  --- 25 ack 60 [13a 4 0 800] ------- [0:3 4:0 32 4] [2 0] 1 0
s 1.119453174 _4_ AGT  --- 29 tcp 1540 [0 0 0 0] ------- [4:0 0:3 32 0] [5 0] 0 0
r 1.119453174 _4_ RTR  --- 29 tcp 1540 [0 0 0 0] ------- [4:0 0:3 32 0] [5 0] 0 0
s 1.119453174 _4_ RTR  --- 29 tcp 1560 [0 0 0 0] ------- [4:0 0:3 32 0] [5 0] 0 0
s 1.119453174 _4_ AGT  --- 30 tcp 1540 [0 0 0 0] ------- [4:0 0:3 32 0] [6 0] 0 0
r 1.119453174 _4_ RTR  --- 30 tcp 1540 [0 0 0 0] ------- [4:0 0:3 32 0] [6 0] 0 0
s 1.119453174 _4_ RTR  --- 30 tcp 1560 [0 0 0 0] ------- [4:0 0:3 32 0] [6 0] 0 0
r 1.119742995 _0_ MAC  --- 0 ACK 38 [0 0 0 0] 
s 1.119952995 _0_ MAC  --- 0 RTS 44 [62e 4 0 0] 
r 1.120305817 _4_ MAC  --- 0 RTS 44 [62e 4 0 0] 
s 1.120315817 _4_ MAC  --- 0 CTS 38 [4f4 0 0 0] 
r 1.120620638 _0_ MAC  --- 0 CTS 38 [4f4 0 0 0] 
s 1.120630638 _0_ MAC  --- 26 ack 118 [13a 4 0 800] ------- [0:3 4:0 32 4] [3 0] 0 0
r 1.121575459 _4_ MAC  --- 26 ack 60 [13a 4 0 800] ------- [0:3 4:0 32 4] [3 0] 1 0
s 1.121585459 _4_ MAC  --- 0 ACK 38 [0 0 0 0] 
r 1.121600459 _4_ AGT  --- 26 ack 60 [13a 4 0 800] ------- [0:3 4:0 32 4] [3 0] 1 0
s 1.121600459 _4_ AGT  --- 31 tcp 1540 [0 0 0 0] ------- [4:0 0:3 32 0] [7 0] 0 0
r 1.121600459 _4_ RTR  --- 31 tcp 1540 [0 0 0 0] ------- [4:0 0:3 32 0] [7 0] 0 0
s 1.121600459 _4_ RTR  --- 31 tcp 1560 [0 0 0 0] ------- [4:0 0:3 32 0] [7 0] 0 0
s 1.121600459 _4_ AGT  --- 32 tcp 1540 [0 0 0 0] ------- [4:0 0:3 32 0] [8 0] 0 0
r 1.121600459 _4_ RTR  --- 32 tcp 1540 [0 0 0 0] ------- [4:0 0:3 32 0] [8 0] 0 0
s 1.121600459 _4_ RTR  --- 32 tcp 1560 [0 0 0 0] ------- [4:0 0:3 32 0] [8 0] 0 0
r 1.121890281 _0_ MAC  --- 0 ACK 38 [0 0 0 0] 
s 1.121979459 _4_ MAC  --- 0 RTS 44 [350e 0 4 0] 
r 1.122332281 _0_ MAC  --- 0 RTS 44 [350e 0 4 0] 
s 1.122342281 _0_ MAC  --- 0 CTS 38 [33d4 4 0 0] 
r 1.122647102 _4_ MAC  --- 0 CTS 38 [33d4 4 0 0] 
s 1.122657102 _4_ MAC  --- 21 tcp 1618 [13a 0 4 800] ------- [4:0 0:3 32 0] [4 0] 0 0
r 1.135601923 _0_ MAC  --- 21 tcp 1560 [13a 0 4 800] ------- [4:0 0:3 32 0] [4 0] 1 0
s 1.135611923 _0_ MAC  --- 0 ACK 38 [0 4 0 0] 
r 1.135626923 _0_ AGT  --- 21 tcp 1560 [13a 0 4 800] ------- [4:0 0:3 32 0] [4 0] 1 0
s 1.135626923 _0_ AGT  --- 33 ack 40 [0 0 0 0] ------- [0:3 4:0 32 0] [4 0] 0 0
r 1.135626923 _0_ RTR  --- 33 ack 40 [0 0 0 0] ------- [0:3 4:0 32 0] [4 0] 0 0
s 1.135626923 _0_ RTR  --- 33 ack 60 [0 0 0 0] ------- [0:3 4:0 32 4] [4 0] 0 0
r 1.135916744 _4_ MAC  --- 0 ACK 38 [0 4 0 0] 
s 1.136046744 _4_ MAC  --- 0 RTS 44 [350e 0 4 0] 
r 1.136399566 _0_ MAC  --- 0 RTS 44 [350e 0 4 0] 
s 1.136409566 _0_ MAC  --- 0 CTS 38 [33d4 4 0 0] 
r 1.136714387 _4_ MAC  --- 0 CTS 38 [33d4 4 0 0] 
s 1.136724387 _4_ MAC  --- 29 tcp 1618 [13a 0 4 800] ------- [4:0 0:3 32 0] [5 0] 0 0
r 1.149669208 _0_ MAC  --- 29 tcp 1560 [13a 0 4 800] ------- [4:0 0:3 32 0] [5 0] 1 0
s 1.149679208 _0_ MAC  --- 0 ACK 38 [0 4 0 0] 
r 1.149694208 _0_ AGT  --- 29 tcp 1560 [13a 0 4 800] ------- [4:0 0:3 32 0] [5 0] 1 0
s 1.149694208 _0_ AGT  --- 34 ack 40 [0 0 0 0] ------- [0:3 4:0 32 0] [5 0] 0 0
r 1.149694208 _0_ RTR  --- 34 ack 40 [0 0 0 0] ------- [0:3 4:0 32 0] [5 0] 0 0
s 1.149694208 _0_ RTR  --- 34 ack 60 [0 0 0 0] ------- [0:3 4:0 32 4] [5 0] 0 0
r 1.149984030 _4_ MAC  --- 0 ACK 38 [0 4 0 0] 
s 1.150153208 _0_ MAC  --- 0 RTS 44 [62e 4 0 0] 
r 1.150506030 _4_ MAC  --- 0 RTS 44 [62e 4 0 0] 
s 1.150516030 _4_ MAC  --- 0 CTS 38 [4f4 0 0 0] 
r 1.150820851 _0_ MAC  --- 0 CTS 38 [4f4 0 0 0] 
s 1.150830851 _0_ MAC  --- 33 ack 118 [13a 4 0 800] ------- [0:3 4:0 32 4] [4 0] 0 0
r 1.151775672 _4_ MAC  --- 33 ack 60 [13a 4 0 800] ------- [0:3 4:0 32 4] [4 0] 1 0
s 1.151785672 _4_ MAC  --- 0 ACK 38 [0 0 0 0] 
r 1.151800672 _4_ AGT  --- 33 ack 60 [13a 4 0 800] ------- [0:3 4:0 32 4] [4 0] 1 0
s 1.151800672 _4_ AGT  --- 35 tcp 1540 [0 0 0 0] ------- [4:0 0:3 32 0] [9 0] 0 0
r 1.151800672 _4_ RTR  --- 35 tcp 1540 [0 0 0 0] ------- [4:0 0:3 32 0] [9 0] 0 0
s 1.151800672 _4_ RTR  --- 35 tcp 1560 [0 0 0 0] ------- [4:0 0:3 32 0] [9 0] 0 0
s 1.151800672 _4_ AGT  --- 36 tcp 1540 [0 0 0 0] ------- [4:0 0:3 32 0] [10 0] 0 0
r 1.151800672 _4_ RTR  --- 36 tcp 1540 [0 0 0 0] ------- [4:0 0:3 32 0] [10 0] 0 0
s 1.151800672 _4_ RTR  --- 36 tcp 1560 [0 0 0 0] ------- [4:0 0:3 32 0] [10 0] 0 0
r 1.152090494 _0_ MAC  --- 0 ACK 38 [0 0 0 0] 
s 1.152140494 _0_ MAC  --- 0 RTS 44 [62e 4 0 0] 
r 1.152493315 _4_ MAC  --- 0 RTS 44 [62e 4 0 0] 
s 1.152503315 _4_ MAC  --- 0 CTS 38 [4f4 0 0 0] 
r 1.152808136 _0_ MAC  --- 0 CTS 38 [4f4 0 0 0] 
s 1.152818136 _0_ MAC  --- 34 ack 118 [13a 4 0 800] ------- [0:3 4:0 32 4] [5 0] 0 0
r 1.153762958 _4_ MAC  --- 34 ack 60 [13a 4 0 800] ------- [0:3 4:0 32 4] [5 0] 1 0
s 1.153772958 _4_ MAC  --- 0 ACK 38 [0 0 0 0] 
r 1.153787958 _4_ AGT  --- 34 ack 60 [13a 4 0 800] ------- [0:3 4:0 32 4] [5 0] 1 0
s 1.153787958 _4_ AGT  --- 37 tcp 1540 [0 0 0 0] ------- [4:0 0:3 32 0] [11 0] 0 0
r 1.153787958 _4_ RTR  --- 37 tcp 1540 [0 0 0 0] ------- [4:0 0:3 32 0] [11 0] 0 0
s 1.153787958 _4_ RTR  --- 37 tcp 1560 [0 0 0 0] ------- [4:0 0:3 32 0] [11 0] 0 0
s 1.153787958 _4_ AGT  --- 38 tcp 1540 [0 0 0 0] ------- [4:0 0:3 32 0] [12 0] 0 0
r 1.153787958 _4_ RTR  --- 38 tcp 1540 [0 0 0 0] ------- [4:0 0:3 32 0] [12 0] 0 0
s 1.153787958 _4_ RTR  --- 38 tcp 1560 [0 0 0 0] ------- [4:0 0:3 32 0] [12 0] 0 0
r 1.154077779 _0_ MAC  --- 0 ACK 38 [0 0 0 0] 
s 1.154326958 _4_ MAC  --- 0 RTS 44 [350e 0 4 0] 
r 1.154679779 _0_ MAC  --- 0 RTS 44 [350e 0 4 0] 
s 1.154689779 _0_ MAC  --- 0 CTS 38 [33d4 4 0 0] 
r 1.154994600 _4_ MAC  --- 0 CTS 38 [33d4 4 0 0] 
s 1.155004600 _4_ MAC  --- 30 tcp 1618 [13a 0 4 800] ------- [4:0 0:3 32 0] [6 0] 0 0
r 1.167949422 _0_ MAC  --- 30 tcp 1560 [13a 0 4 800] ------- [4:0 0:3 32 0] [6 0] 1 0
s 1.167959422 _0_ MAC  --- 0 ACK 38 [0 4 0 0] 
r 1.167974422 _0_ AGT  --- 30 tcp 1560 [13a 0 4 800] ------- [4:0 0:3 32 0] [6 0] 1 0
s 1.167974422 _0_ AGT  --- 39 ack 40 [0 0 0 0] ------- [0:3 4:0 32 0] [6 0] 0 0
r 1.167974422 _0_ RTR  --- 39 ack 40 [0 0 0 0] ------- [0:3 4:0 32 0] [6 0] 0 0
s 1.167974422 _0_ RTR  --- 39 ack 60 [0 0 0 0] ------- [0:3 4:0 32 4] [6 0] 0 0
r 1.168264243 _4_ MAC  --- 0 ACK 38 [0 4 0 0] 
s 1.168373422 _0_ MAC  --- 0 RTS 44 [62e 4 0 0] 
r 1.168726243 _4_ MAC  --- 0 RTS 44 [62e 4 0 0] 
s 1.168736243 _4_ MAC  --- 0 CTS 38 [4f4 0 0 0] 
r 1.169041064 _0_ MAC  --- 0 CTS 38 [4f4 0 0 0] 
s 1.169051064 _0_ MAC  --- 39 ack 118 [13a 4 0 800] ------- [0:3 4:0 32 4] [6 0] 0 0
r 1.169995886 _4_ MAC  --- 39 ack 60 [13a 4 0 800] ------- [0:3 4:0 32 4] [6 0] 1 0
s 1.170005886 _4_ MAC  --- 0 ACK 38 [0 0 0 0] 
r 1.170020886 _4_ AGT  --- 39 ack 60 [13a 4 0 800] ------- [0:3 4:0 32 4] [6 0] 1 0
s 1.170020886 _4_ AGT  --- 40 tcp 1540 [0 0 0 0] ------- [4:0 0:3 32 0] [13 0] 0 0
r 1.170020886 _4_ RTR  --- 40 tcp 1540 [0 0 0 0] ------- [4:0 0:3 32 0] [13 0] 0 0
s 1.170020886 _4_ RTR  --- 40 tcp 1560 [0 0 0 0] ------- [4:0 0:3 32 0] [13 0] 0 0
s 1.170020886 _4_ AGT  --- 41 tcp 1540 [0 0 0 0] ------- [4:0 0:3 32 0] [14 0] 0 0
r 1.170020886 _4_ RTR  --- 41 tcp 1540 [0 0 0 0] ------- [4:0 0:3 32 0] [14 0] 0 0
s 1.170020886 _4_ RTR  --- 41 tcp 1560 [0 0 0 0] ------- [4:0 0:3 32 0] [14 0] 0 0
r 1.170310707 _0_ MAC  --- 0 ACK 38 [0 0 0 0] 
s 1.170619886 _4_ MAC  --- 0 RTS 44 [350e 0 4 0] 
r 1.170972707 _0_ MAC  --- 0 RTS 44 [350e 0 4 0] 
s 1.170982707 _0_ MAC  --- 0 CTS 38 [33d4 4 0 0] 
r 1.171287528 _4_ MAC  --- 0 CTS 38 [33d4 4 0 0] 
s 1.171297528 _4_ MAC  --- 31 tcp 1618 [13a 0 4 800] ------- [4:0 0:3 32 0] [7 0] 0 0
r 1.184242350 _0_ MAC  --- 31 tcp 1560 [13a 0 4 800] ------- [4:0 0:3 32 0] [7 0] 1 0
s 1.184252350 _0_ MAC  --- 0 ACK 38 [0 4 0 0] 
r 1.184267350 _0_ AGT  --- 31 tcp 1560 [13a 0 4 800] ------- [4:0 0:3 32 0] [7 0] 1 0
s 1.184267350 _0_ AGT  --- 42 ack 40 [0 0 0 0] ------- [0:3 4:0 32 0] [7 0] 0 0
r 1.184267350 _0_ RTR  --- 42 ack 40 [0 0 0 0] ------- [0:3 4:0 32 0] [7 0] 0 0
s 1.184267350 _0_ RTR  --- 42 ack 60 [0 0 0 0] ------- [0:3 4:0 32 4] [7 0] 0 0
r 1.184557171 _4_ MAC  --- 0 ACK 38 [0 4 0 0] 
s 1.184627171 _4_ MAC  --- 0 RTS 44 [350e 0 4 0] 
r 1.184979992 _0_ MAC  --- 0 RTS 44 [350e 0 4 0] 
s 1.184989992 _0_ MAC  --- 0 CTS 38 [33d4 4 0 0] 
r 1.185294814 _4_ MAC  --- 0 CTS 38 [33d4 4 0 0] 
s 1.185304814 _4_ MAC  --- 32 tcp 1618 [13a 0 4 800] ------- [4:0 0:3 32 0] [8 0] 0 0
r 1.198249635 _0_ MAC  --- 32 tcp 1560 [13a 0 4 800] ------- [4:0 0:3 32 0] [8 0] 1 0
s 1.198259635 _0_ MAC  --- 0 ACK 38 [0 4 0 0] 
r 1.198274635 _0_ AGT  --- 32 tcp 1560 [13a 0 4 800] ------- [4:0 0:3 32 0] [8 0] 1 0
s 1.198274635 _0_ AGT  --- 43 ack 40 [0 0 0 0] ------- [0:3 4:0 32 0] [8 0] 0 0
r 1.198274635 _0_ RTR  --- 43 ack 40 [0 0 0 0] ------- [0:3 4:0 32 0] [8 0] 0 0
s 1.198274635 _0_ RTR  --- 43 ack 60 [0 0 0 0] ------- [0:3 4:0 32 4] [8 0] 0 0
r 1.198564456 _4_ MAC  --- 0 ACK 38 [0 4 0 0] 
s 1.198633635 _0_ MAC  --- 0 RTS 44 [62e 4 0 0] 
r 1.198986456 _4_ MAC  --- 0 RTS 44 [62e 4 0 0] 
s 1.198996456 _4_ MAC  --- 0 CTS 38 [4f4 0 0 0] 
r 1.199301278 _0_ MAC  --- 0 CTS 38 [4f4 0 0 0] 
s 1.199311278 _0_ MAC  --- 42 ack 118 [13a 4 0 800] ------- [0:3 4:0 32 4] [7 0] 0 0
r 1.200256099 _4_ MAC  --- 42 ack 60 [13a 4 0 800] ------- [0:3 4:0 32 4] [7 0] 1 0
s 1.200266099 _4_ MAC  --- 0 ACK 38 [0 0 0 0] 
r 1.200281099 _4_ AGT  --- 42 ack 60 [13a 4 0 800] ------- [0:3 4:0 32 4] [7 0] 1 0
s 1.200281099 _4_ AGT  --- 44 tcp 1540 [0 0 0 0] ------- [4:0 0:3 32 0] [15 0] 0 0
r 1.200281099 _4_ RTR  --- 44 tcp 1540 [0 0 0 0] ------- [4:0 0:3 32 0] [15 0] 0 0
s 1.200281099 _4_ RTR  --- 44 tcp 1560 [0 0 0 0] ------- [4:0 0:3 32 0] [15 0] 0 0
s 1.200281099 _4_ AGT  --- 45 tcp 1540 [0 0 0 0] ------- [4:0 0:3 32 0] [16 0] 0 0
r 1.200281099 _4_ RTR  --- 45 tcp 1540 [0 0 0 0] ------- [4:0 0:3 32 0] [16 0] 0 0
s 1.200281099 _4_ RTR  --- 45 tcp 1560 [0 0 0 0] ------- [4:0 0:3 32 0] [16 0] 0 0
r 1.200570920 _0_ MAC  --- 0 ACK 38 [0 0 0 0] 
s 1.200860920 _0_ MAC  --- 0 RTS 44 [62e 4 0 0] 
r 1.201213742 _4_ MAC  --- 0 RTS 44 [62e 4 0 0] 
s 1.201223742 _4_ MAC  --- 0 CTS 38 [4f4 0 0 0] 
r 1.201528563 _0_ MAC  --- 0 CTS 38 [4f4 0 0 0] 
s 1.201538563 _0_ MAC  --- 43 ack 118 [13a 4 0 800] ------- [0:3 4:0 32 4] [8 0] 0 0
r 1.202483384 _4_ MAC  --- 43 ack 60 [13a 4 0 800] ------- [0:3 4:0 32 4] [8 0] 1 0
s 1.202493384 _4_ MAC  --- 0 ACK 38 [0 0 0 0] 
r 1.202508384 _4_ AGT  --- 43 ack 60 [13a 4 0 800] ------- [0:3 4:0 32 4] [8 0] 1 0
s 1.202508384 _4_ AGT  --- 46 tcp 1540 [0 0 0 0] ------- [4:0 0:3 32 0] [17 0] 0 0
r 1.202508384 _4_ RTR  --- 46 tcp 1540 [0 0 0 0] ------- [4:0 0:3 32 0] [17 0] 0 0
s 1.202508384 _4_ RTR  --- 46 tcp 1560 [0 0 0 0] ------- [4:0 0:3 32 0] [17 0] 0 0
s 1.202508384 _4_ AGT  --- 47 tcp 1540 [0 0 0 0] ------- [4:0 0:3 32 0] [18 0] 0 0
r 1.202508384 _4_ RTR  --- 47 tcp 1540 [0 0 0 0] ------- [4:0 0:3 32 0] [18 0] 0 0
s 1.202508384 _4_ RTR  --- 47 tcp 1560 [0 0 0 0] ------- [4:0 0:3 32 0] [18 0] 0 0